# vtk DataFile Version 2.0
wasora vtk output
ASCII
DATASET UNSTRUCTURED_GRID
POINTS 10695 double
0 0 2
0 0 0
0 2 2
0 2 0
2 0 0
2 0 2
2 2 2
2 1 2
2 2 0
2 1 0
3 0 0
3 0 3
2 0 3
2 1 3
3 1 0
3 1 3
0 0 0.1
0 0 0.2
0 0 0.3
0 0 0.4
0 0 0.5
0 0 0.6
0 0 0.7
0 0 0.8
0 0 0.9
0 0 1
0 0 1.1
0 0 1.2
0 0 1.3
0 0 1.4
0 0 1.5
0 0 1.6
0 0 1.7
0 0 1.8
0 0 1.9
0 0.1 2
0 0.2 2
0 0.3 2
0 0.4 2
0 0.5 2
0 0.6 2
0 0.7 2
0 0.8 2
0 0.9 2
0 1 2
0 1.1 2
0 1.2 2
0 1.3 2
0 1.4 2
0 1.5 2
0 1.6 2
0 1.7 2
0 1.8 2
0 1.9 2
0 2 0.1
0 2 0.2
0 2 0.3
0 2 0.4
0 2 0.5
0 2 0.6
0 2 0.7
0 2 0.8
0 2 0.9
0 2 1
0 2 1.1
0 2 1.2
0 2 1.3
0 2 1.4
0 2 1.5
0 2 1.6
0 2 1.7
0 2 1.8
0 2 1.9
0 0.1 0
0 0.2 0
0 0.3 0
0 0.4 0
0 0.5 0
0 0.6 0
0 0.7 0
0 0.8 0
0 0.9 0
0 1 0
0 1.1 0
0 1.2 0
0 1.3 0
0 1.4 0
0 1.5 0
0 1.6 0
0 1.7 0
0 1.8 0
0 1.9 0
0.1 0 0
0.2 0 0
0.3 0 0
0.4 0 0
0.5 0 0
0.6 0 0
0.7 0 0
0.8 0 0
0.9 0 0
1 0 0
1.1 0 0
1.2 0 0
1.3 0 0
1.4 0 0
1.5 0 0
1.6 0 0
1.7 0 0
1.8 0 0
1.9 0 0
2 0 0.1
2 0 0.2
2 0 0.3
2 0 0.4
2 0 0.5
2 0 0.6
2 0 0.7
2 0 0.8
2 0 0.9
2 0 1
2 0 1.1
2 0 1.2
2 0 1.3
2 0 1.4
2 0 1.5
2 0 1.6
2 0 1.7
2 0 1.8
2 0 1.9
0.1 0 2
0.2 0 2
0.3 0 2
0.4 0 2
0.5 0 2
0.6 0 2
0.7 0 2
0.8 0 2
0.9 0 2
1 0 2
1.1 0 2
1.2 0 2
1.3 0 2
1.4 0 2
1.5 0 2
1.6 0 2
1.7 0 2
1.8 0 2
1.9 0 2
0.1 2 2
0.2 2 2
0.3 2 2
0.4 2 2
0.5 2 2
0.6 2 2
0.7 2 2
0.8 2 2
0.9 2 2
1 2 2
1.1 2 2
1.2 2 2
1.3 2 2
1.4 2 2
1.5 2 2
1.6 2 2
1.7 2 2
1.8 2 2
1.9 2 2
2 1.1 2
2 1.2 2
2 1.3 2
2 1.4 2
2 1.5 2
2 1.6 2
2 1.7 2
2 1.8 2
2 1.9 2
2 0.1 2
2 0.2 2
2 0.3 2
2 0.4 2
2 0.5 2
2 0.6 2
2 0.7 2
2 0.8 2
2 0.9 2
0.1 2 0
0.2 2 0
0.3 2 0
0.4 2 0
0.5 2 0
0.6 2 0
0.7 2 0
0.8 2 0
0.9 2 0
1 2 0
1.1 2 0
1.2 2 0
1.3 2 0
1.4 2 0
1.5 2 0
1.6 2 0
1.7 2 0
1.8 2 0
1.9 2 0
2 2 0.1
2 2 0.2
2 2 0.3
2 2 0.4
2 2 0.5
2 2 0.6
2 2 0.7
2 2 0.8
2 2 0.9
2 2 1
2 2 1.1
2 2 1.2
2 2 1.3
2 2 1.4
2 2 1.5
2 2 1.6
2 2 1.7
2 2 1.8
2 2 1.9
2 1.1 0
2 1.2 0
2 1.3 0
2 1.4 0
2 1.5 0
2 1.6 0
2 1.7 0
2 1.8 0
2 1.9 0
2 0.1 0
2 0.2 0
2 0.3 0
2 0.4 0
2 0.5 0
2 0.6 0
2 0.7 0
2 0.8 0
2 0.9 0
2 1 0.1
2 1 0.2
2 1 0.3
2 1 0.4
2 1 0.5
2 1 0.6
2 1 0.7
2 1 0.8
2 1 0.9
2 1 1
2 1 1.1
2 1 1.2
2 1 1.3
2 1 1.4
2 1 1.5
2 1 1.6
2 1 1.7
2 1 1.8
2 1 1.9
2.1 0 0
2.2 0 0
2.3 0 0
2.4 0 0
2.5 0 0
2.6 0 0
2.7 0 0
2.8 0 0
2.9 0 0
3 0 0.1
3 0 0.2
3 0 0.3
3 0 0.4
3 0 0.5
3 0 0.6
3 0 0.7
3 0 0.8
3 0 0.9
3 0 1
3 0 1.1
3 0 1.2
3 0 1.3
3 0 1.4
3 0 1.5
3 0 1.6
3 0 1.7
3 0 1.8
3 0 1.9
3 0 2
3 0 2.1
3 0 2.2
3 0 2.3
3 0 2.4
3 0 2.5
3 0 2.6
3 0 2.7
3 0 2.8
3 0 2.9
2 0 2.1
2 0 2.2
2 0 2.3
2 0 2.4
2 0 2.5
2 0 2.6
2 0 2.7
2 0 2.8
2 0 2.9
2.1 0 3
2.2 0 3
2.3 0 3
2.4 0 3
2.5 0 3
2.6 0 3
2.7 0 3
2.8 0 3
2.9 0 3
2 0.1 3
2 0.2 3
2 0.3 3
2 0.4 3
2 0.5 3
2 0.6 3
2 0.7 3
2 0.8 3
2 0.9 3
2 1 2.1
2 1 2.2
2 1 2.3
2 1 2.4
2 1 2.5
2 1 2.6
2 1 2.7
2 1 2.8
2 1 2.9
2.1 1 0
2.2 1 0
2.3 1 0
2.4 1 0
2.5 1 0
2.6 1 0
2.7 1 0
2.8 1 0
2.9 1 0
3 1 0.1
3 1 0.2
3 1 0.3
3 1 0.4
3 1 0.5
3 1 0.6
3 1 0.7
3 1 0.8
3 1 0.9
3 1 1
3 1 1.1
3 1 1.2
3 1 1.3
3 1 1.4
3 1 1.5
3 1 1.6
3 1 1.7
3 1 1.8
3 1 1.9
3 1 2
3 1 2.1
3 1 2.2
3 1 2.3
3 1 2.4
3 1 2.5
3 1 2.6
3 1 2.7
3 1 2.8
3 1 2.9
2.1 1 3
2.2 1 3
2.3 1 3
2.4 1 3
2.5 1 3
2.6 1 3
2.7 1 3
2.8 1 3
2.9 1 3
3 0.1 0
3 0.2 0
3 0.3 0
3 0.4 0
3 0.5 0
3 0.6 0
3 0.7 0
3 0.8 0
3 0.9 0
3 0.1 3
3 0.2 3
3 0.3 3
3 0.4 3
3 0.5 3
3 0.6 3
3 0.7 3
3 0.8 3
3 0.9 3
0 1 1
0 1.40486 1.40779
0 1.4111 0.558715
0 0.587119 0.560188
0 0.583675 1.41506
0 1.00161 1.552
0 1.56309 0.996481
0 0.998382 0.448903
0 0.447999 1.00161
0 1.65796 1.65796
0 0.338026 1.664
0 1.664 0.338026
0 0.342037 0.342037
0 1.12505 1.28738
0 1.28031 0.866028
0 0.862641 0.698922
0 0.71781 1.11988
0 1.27937 1.69285
0 1.69197 1.27939
0 0.314327 1.27983
0 1.27939 0.308029
0 0.727866 1.68934
0 1.69197 0.720615
0 0.310768 0.734212
0 0.720615 0.308029
0 1.33276 1.12004
0 0.631184 0.841093
0 1.1174 0.667653
0 0.837084 1.36225
0 1.07053 1.77056
0 1.77591 1.06936
0 0.229313 1.0702
0 1.06936 0.224092
0 1.4811 1.77482
0 1.76803 1.47378
0 1.4736 0.231881
0 0.217501 1.47833
0 0.232141 0.516759
0 0.521666 0.217501
0 0.521666 1.7825
0 1.76512 0.515864
0 1.19822 1.48505
0 1.49098 0.814214
0 0.804725 0.515241
0 0.514322 1.20799
0 0.950857 1.19566
0 0.806818 0.958201
0 1.22731 0.507531
0 1.49417 1.2235
0 1.80166 0.196154
0 1.80166 1.80385
0 0.196154 1.80166
0 0.195982 0.199099
0 1.8058 0.871813
0 0.875473 1.81458
0 0.185424 0.875473
0 0.871813 0.194202
0 1.48926 1.55987
0 0.520344 1.59259
0 0.428946 0.511676
0 1.55987 0.510739
0 0.555277 0.366327
0 1.55997 1.42795
0 0.393908 1.44599
0 1.43664 0.402221
0 1.14816 1.12339
0 1.10369 0.851393
0 0.460338 0.819528
0 0.819528 1.53966
0 0.995244 1.38825
0 0.604759 1.0193
0 1.30522 1.29321
0 1.285 0.696095
0 1.64997 1.8265
0 1.83678 1.63655
0 0.363452 1.83678
0 1.64236 0.16575
0 1.83678 0.363452
0 0.16575 1.64236
0 0.173626 0.365809
0 0.363452 0.163224
0 1.40486 0.966807
0 0.967876 0.593796
0 0.707269 0.691623
0 0.691623 1.29273
0 1.21909 1.83671
0 1.84008 1.21679
0 0.159916 1.21679
0 1.21679 0.159916
0 0.14483 0.681704
0 0.687121 0.147769
0 0.688955 1.85079
0 1.85517 0.681704
0 0.856533 0.359139
0 1.64092 0.856457
0 0.929507 0.85189
0 0.364114 1.13519
0 1.13519 1.63589
0 1.63648 1.14472
0 1.13669 0.365737
0 0.663103 1.54483
0 0.447171 0.660875
0 1.33697 1.55654
0 1.55654 0.663026
0 0.858543 1.08662
0 0.332719 0.916883
0 0.916883 1.66728
0 1.3646 0.137055
0 0.137055 1.3646
0 1.35515 1.86212
0 1.86295 1.3646
0 1.26547 1.0056
0 1.09769 0.54385
0 1.47879 1.0987
0 0.775467 0.818357
0 0.809886 1.22396
0 1.01695 0.72484
0 0.661467 0.484298
0 0.606662 0.73776
0 0.737268 1.39115
0 0.435558 1.31414
0 1.12741 0.973626
0 0.968488 1.8687
0 1.87021 0.973396
0 0.131302 0.968488
0 0.973396 0.129787
0 1.00405 0.29614
0 1.68273 0.989799
0 0.303213 0.594855
0 1.39167 1.70088
0 0.60379 1.68464
0 1.6936 0.60331
0 0.319174 1.53887
0 1.67925 1.54212
0 1.54431 0.31879
0 0.461485 0.317237
0 1.5181 1.35128
0 1.35347 0.486208
0 0.515805 1.06604
0 1.08773 1.47801
0 1.21035 0.791633
0 1.24351 1.19341
0 0.119304 0.79043
0 0.790723 0.121257
0 0.791638 1.87997
0 1.87923 0.78982
0 0.905731 1.46772
0 1.29205 1.38868
0 0.537382 0.888893
0 1.39499 0.707463
0 0.116867 1.88313
0 1.88313 1.88313
0 0.116867 0.116867
0 1.88313 0.116867
0 1.03456 1.11268
0 1.53989 1.88742
0 1.8871 1.53087
0 1.88033 0.467349
0 1.53087 0.112904
0 0.123897 0.466634
0 0.46235 0.110874
0 0.112904 1.53087
0 0.459444 1.88948
0 1.56599 1.69853
0 1.69992 0.441147
0 0.302625 0.433657
0 0.45419 1.68801
0 1.10605 1.89617
0 1.89617 1.10605
0 0.103744 1.10582
0 1.10614 0.103604
0 1.01269 1.67893
0 0.321067 1.01267
0 1.38446 0.28754
0 0.619587 0.298405
0 0.297314 1.38725
0 1.71245 1.38447
0 1.50164 0.921285
0 0.789966 0.635505
0 0.627282 1.1995
0 0.924019 0.498584
0 1.39097 0.868087
0 0.579873 1.30478
0 1.73212 1.88992
0 1.88201 1.72329
0 1.73179 0.109745
0 1.88201 0.276715
0 0.109745 1.73179
0 0.104938 0.266072
0 0.276694 0.118082
0 0.276715 1.88201
0 0.708038 1.01624
0 0.949672 1.30412
0 1.59557 0.761845
0 0.776409 0.395347
0 1.41928 1.30389
0 1.21834 0.615359
0 1.15506 1.38871
0 1.17543 1.73534
0 1.73681 1.17894
0 0.262131 1.17746
0 1.17758 0.261013
0 1.49836 1.4846
0 0.501817 1.47625
0 1.48155 0.511768
0 0.51462 0.505091
0 0.702908 0.57279
0 1.23828 1.58872
0 0.576579 1.88939
0 0.0921778 0.580866
0 0.575989 0.108644
0 1.90833 0.580951
0 0.245895 1.7035
0 1.7035 0.245895
0 1.7035 1.7541
0 0.245895 0.296503
0 1.03062 1.26651
0 0.704273 0.918527
0 1.40426 1.19161
0 1.5726 1.60614
0 1.60775 0.427597
0 0.392786 0.426914
0 0.412503 1.59893
0 0.915273 0.940036
0 1.30837 0.57333
0 1.7809 0.754071
0 0.215419 0.768151
0 0.759435 0.218207
0 0.770082 1.78831
0 1.23202 0.39967
0 1.60033 1.23202
0 0.969237 1.76566
0 0.234338 0.969237
0 1.09855 1.18938
0 1.35055 0.387385
0 1.61696 1.34416
0 0.665625 0.398944
0 0.814904 1.6348
0 0.366786 0.820271
0 1.19404 0.882747
0 0.625208 1.09824
0 1.75309 1.62082
0 0.391487 0.25727
0 0.416467 1.22338
0 1.33462 1.77487
0 0.0861519 0.87999
0 0.880173 0.0872489
0 1.91281 0.880066
0 0.880134 1.91376
0 1.32952 0.78381
0 0.251986 1.62097
0 1.62206 0.25191
0 1.78444 0.976475
0 0.976272 0.215002
0 1.78705 1.29783
0 0.210556 1.29997
0 1.29783 0.212952
0 1.02408 0.90723
0 0.481672 1.3721
0 1.43339 1.89563
0 1.92202 1.43101
0 1.43101 0.0779795
0 0.0779795 1.43101
0 0.840142 0.875194
0 0.378527 1.74698
0 1.75084 0.376715
0 1.21593 1.31165
0 1.15672 0.470907
0 1.5417 1.15789
0 1.27371 0.0931998
0 0.0928575 1.27402
0 1.2751 1.91155
0 1.9068 1.27371
0 0.936679 1.09697
0 1.11098 0.757623
0 0.825915 1.44137
0 0.549908 0.807406
0 0.912066 1.56867
0 0.431813 0.91123
0 1.25104 1.0835
0 0.296962 1.77554
0 1.77929 1.70622
0 1.78057 0.292383
0 0.302591 0.229369
0 0.224084 0.430991
0 1.57221 1.78127
0 1.42451 1.4981
0 1.50985 0.583644
0 1.91982 0.361503
0 1.64439 1.92077
0 1.92118 1.63814
0 1.641 0.07768
0 0.359922 1.92165
0 0.0855197 0.349223
0 0.360499 0.0784359
0 0.07768 1.641
0 0.881583 0.599467
0 0.251812 0.667941
0 0.608365 1.77678
0 1.76784 0.670658
0 1.1438 1.5537
0 0.587673 1.50615
0 0.485482 0.580222
0 1.33447 1.02937
0 1.32076 0.944492
0 0.460974 1.14061
0 0.856404 0.434957
0 1.07874 1.36177
0 1.56562 0.856101
0 1.01893 0.811105
0 0.991057 1.47535
0 0.526037 0.974838
0 0.499381 0.737485
0 0.738792 1.49377
0 1.04107 0.597949
0 1.48938 1.01858
0 1.01394 0.523697
0 0.78171 0.733592
0 0.776587 1.30189
0 0.737364 1.21416
0 0.699937 0.777488
0 0.657843 1.9324
0 0.0610327 0.658336
0 0.658444 0.0649135
0 1.93907 0.658353
0 0.666062 1.61832
0 0.358573 0.664016
0 0.944306 0.675239
0 0.605653 0.211759
0 1.19485 0.697464
0 1.7866 0.432905
0 0.437662 1.79527
0 1.07447 1.0388
0 1.68704 1.08287
0 1.04613 0.374713
0 0.272068 0.846665
0 0.845889 1.72738
0 0.6277 0.64232
0 0.653655 1.36918
0 0.0822798 1.18629
0 1.18629 0.0822798
0 1.18629 1.91772
0 1.91772 1.18629
0 0.907616 0.285986
0 1.70498 0.907062
0 0.809657 0.29737
0 1.69858 0.803671
0 0.212642 1.39517
0 1.39212 0.20543
0 1.79455 1.39216
0 1.28492 1.48516
0 1.48557 0.718968
0 0.441963 0.19731
0 1.80219 1.55828
0 0.738376 1.58679
0 0.40717 0.739398
0 0.62017 0.933295
0 0.936195 0.759213
0 0.800992 1.14701
0 1.31496 1.20344
[...]
POINT_DATA 10695
SCALARS sigma double
LOOKUP_TABLE default
230893
241479
225300
211021
76731.3
129598
1429.5
354517
1263.88
285437
1813.72
100042
99978
100041
1271.86
100001
161074
138785
118031
91951.8
77741.8
70971.1
60850.5
53742.7
50226.2
46423
48366.5
54979.2
59785.3
68247.6
78965.5
89883.5
116350
146917
161949
231158
237278
213964
185653
209520
218829
220591
209084
209520
215228
183649
188531
178474
182336
171897
174193
161276
180937
170905
183381
177884
141845
108675
78604.2
81953.3
70350
36096.7
29016.5
21990.2
31229.4
51293.4
59562.7
86945.2
97746.7
106089
142648
174475
168979
209586
234764
196499
218236
211918
190248
240587
211034
197989
222772
197075
192218
181877
202443
173184
146942
166171
186416
178820
210869
179834
168499
154193
149037
141899
139662
135699
136807
129747
121693
119214
111631
103053
95001.5
86126.3
74633.8
66342
58400.2
131733
131137
154954
172983
204766
197203
185915
228012
212580
169406
220949
244306
186466
197658
251389
233808
227408
202668
186164
212460
176602
166064
161436
151986
143364
142469
136832
136128
133667
123999
119421
115984
113313
103057
96159.5
84684.8
77419.3
71790.3
189160
158382
140853
123247
110406
105473
96827.9
84060.6
77412.1
66988
56314.8
44843.7
35591.8
27919
19951.1
8970.06
4202.43
1719.83
1944.81
129654
69616.1
53979.7
32797.4
21318.1
15067.6
7233.18
2930.21
1373.21
118811
118332
129928
113356
117303
110937
119675
140464
157112
185189
160939
140271
120939
111043
103957
95612.2
85410.3
77675.8
69370.4
57221.8
46116.2
35470.2
26539.2
19539.7
9584.62
4446.06
1575.39
1688.52
2375.69
3140.61
4973.07
8598.67
11101.4
11905
14468.9
15167.7
14926.5
14578.5
13804.7
14032.6
12859.5
11774.5
10319.4
7678.56
4687.72
2775.75
1904.86
94646.2
62361.7
37533.9
33983.7
20504.8
13283.5
5752.87
4026.24
1249.64
80263.2
68330.8
96292.8
78093.7
97188.7
95124.5
90114.5
124542
139589
327664
321959
287719
349241
387247
426798
369019
370977
377785
366354
413267
388563
371737
395308
395180
393693
431536
402276
365995
44181.4
39337.7
28687.3
19516.1
14001.3
6683.36
2542.1
1782.66
1912.21
1709.75
1919.75
2422.91
6133.01
10266.2
18565.5
26590.8
38786.2
49288.5
62058
74038.1
83890.9
93703.8
101475
110375
112549
116282
118662
116809
114622
113710
110899
108323
106531
104483
102960
101310
100601
100170
112756
102345
100423
99907.5
99006
98926.2
99148.1
99659.1
99759.4
99882.8
99746.3
99578.3
99479.6
99457.2
99576.3
99794.3
100019
100069
100021
100064
100162
100284
100311
100286
100291
100279
100093
162629
123288
119056
110512
104861
102956
101392
100548
100163
114457
75132.4
50526.7
30757.2
17841.4
7728.67
3277.38
1443.42
1629.52
1565.74
1664.74
3869.41
7447.47
14260.6
21791.8
28881
35830.1
48825.7
59299
68382
77723.6
83135.7
92427.4
98971.6
102620
108840
109720
108374
106318
106118
104052
103311
102239
101169
100463
100202
100132
100020
99988.5
99786.1
99537.5
99349.1
99243.5
99348.7
99569.6
99757.3
99925.7
1953.19
2434.01
2973.29
3302.22
3386.09
3386.75
2720.95
2374.2
1720.11
100106
100213
100314
100331
100352
100301
100213
100099
100025
40742.3
50345.8
52882.2
65977.3
62932.4
66727.6
19427.7
69937.8
53115
78383.6
91334.8
79409.5
95846.2
45337.6
34197.8
52578.9
47560.6
86356.7
37327.3
60690.2
84121.2
94322.8
33393.9
59122.1
88847.2
30430
51863.2
49088.1
54991.6
96497.1
8375.52
56095.9
102830
99102.2
54706.1
95824.9
70771.5
74226.5
114145
109273
53263.8
61299.8
28032.7
65949.3
54677.4
45225.3
45209.9
59992.1
30723.1
110543
106891
120215
114710
17288.2
117701
56693.6
112797
64474.4
81389.1
71928.7
57023.9
81299.8
48214.3
67990.6
67144
38469.8
38992.4
55059.1
69888.5
56558.6
48736.3
40394.3
41828.2
107446
83802.5
126593
108498
83941.8
88710.5
89988
124442
26466.7
53589
56526
55825.7
117164
29288
57156.9
114104
61361.4
125159
128554
40869.5
80217.3
19651.7
44448
56004.2
74235.1
20397.9
76798.3
71338.6
60120.9
63947.1
38857.8
44899
54910.5
84227.9
126046
63909.9
112040
45710.1
29992.4
57836.6
23912.5
48808
49230.1
46317.3
68997.9
52795.3
59446.1
61502.4
36061.6
126650
4166.46
55228.7
139784
93178.4
10277.4
65214
91580.3
92530.3
45724.1
74474.6
62683.3
74852.2
93347.6
43305.7
58333.2
51768.2
62825
38870.6
36587.9
57405.3
144064
154027
29152.4
63316.7
51008.1
50356.3
40810.3
163849
131849
139652
149258
39246.4
126124
71744.4
73395.6
127873
81895.2
162318
77976.5
154514
84514.2
64118.1
77791.8
97589.3
149397
20404.7
50820.1
151108
86908.9
56551.7
83753.7
91994.5
63195.3
44336.5
22885
59647.6
51301.6
63376.5
29516.3
56579.2
128386
106614
131804
114070
109681
112360
143531
158586
46279
50802.6
31255.5
77626.3
40094.2
51272
52280.4
92944.1
19440
57606.5
92696.8
56061
71422.3
58593
67376.4
64406.7
66761.8
146293
69701.1
155226
60274.4
96262.1
93996.6
94549.1
97128.6
48032.2
47359.7
34395.2
71820.8
69247.5
82064.5
78722.6
43633.4
53594.2
30460.5
57599.9
113380
116277
72061.3
30301.5
97134.2
53615.9
41265.5
75632.7
42806.2
80461.3
80380.3
55868.4
33808.5
50180.2
72517.9
100240
56279
96108
52783.6
160664
20974.5
165452
36623.5
81823.6
86152.8
5253.23
112055
36345
61261.2
107566
39112.1
61317.9
126226
66794.7
143903
68342.8
45631.8
102937
75662.7
45842
67141.2
23249.2
154100
59618.5
147597
43814.1
41548.7
43399.7
61701.8
54995.9
71647.6
53764.1
31869.1
114390
87183.9
90726.1
113750
79743.4
97439.5
58117.6
50762.4
96635.8
139521
93521.8
131302
158600
97252.3
173103
97734.5
57004
62625.6
106372
42304.9
68167
71665
65054.4
28937.6
29803
55572
75209.2
53194.8
22193.4
43084.6
63764.3
53863.2
59269.6
69264.3
53910.7
22655.4
60067.4
53950.3
53455.8
49018
53547.3
178706
64561
168093
54516.9
82668.5
60331.2
51674.9
114934
45635.7
64835.5
111908
38175.2
13948.9
81040
56136
94619.2
61479.5
59906.4
54540.6
141055
149591
31133.1
92305.1
13715
96371.1
22243.2
64363.1
107521
47993.6
57144.2
37602.1
117754
68358.6
73689.4
58142.4
49991
46806.3
46673.7
34876.3
77398
99231.1
101020
60912
61197.6
161688
10025.9
167713
49915.6
103972
148071
134727
141073
180516
140612
129970
170633
134861
46926.5
69051.3
16714.3
119918
18462.7
67236.2
47926.4
109574
45299.8
46629.7
20487.3
75926
91434.3
46062.3
56981
111692
83641.3
74227
55080.6
53415.9
79381.5
56050.5
74989.8
155757
154444
54126.2
64591.8
50253.5
59282.9
55315.6
78099.7
52210.7
162004
165515
14606.4
35235.2
66772.9
91960.1
87217.6
63582.8
75840.3
37744.1
48046.7
33452.1
28538.5
43294.1
60619.9
73788.4
68441.4
78462.5
59295.7
81413.3
68182.6
74457.5
95426.1
51215.3
54663.7
49379.7
55905.5
70351.6
80278.8
91020.6
102000
66932.8
59413.7
172882
151816
43230.9
56484.7
80323.2
192848
173961
192078
191145
43711.3
65181.5
35227.9
24832.8
53551.7
70186.5
39009.2
111526
53034.3
100285
105417
110554
110958
33468.9
53323.4
43721.8
51278.5
60749.3
26268.7
26920.3
69636.7
117461
57585.5
48154.6
46297.8
120298
4507.19
121006
53777.4
99474.5
100012
100919
98865.3
101854
98879.2
102211
82525.5
107757
98039
114963
90317.2
115975
102607
100465
94806.8
102720
102062
100665
75965.4
101992
96390.1
113680
79253.3
113416
101946
104870
92086.2
101301
100616
110165
65676.9
110741
103364
95308.4
87978.1
96472
89529.9
128324
91585.3
125507
102258
89564.2
101786
105823
101039
98629.9
102176
99648.3
87360.9
150785
75707.4
141571
97759.8
116628
65564.5
119586
100755
107678
96087
100368
110859
100013
91513.8
99369
100665
85932.5
105785
99300.2
98992.3
91616.7
104878
102638
97755.9
89594.4
84253.2
135305
106787
86855.4
101294
138355
100362
96139.1
96379
104017
101691
110953
65045.9
107747
70286.1
125958
94730.4
127283
107667
77104.7
104563
99262.6
104531
97318
98588.9
96062.4
100834
107272
100195
101464
110604
99914.9
72026
100880
102901
106399
108887
89715.5
99624.5
101763
102051
97712.8
100325
100438
76849
100646
97695.9
102955
117509
60356
115245
108502
82837.2
102642
95606.5
115358
98210
95969
95273.9
118096
99131.9
94687.5
102994
72662.1
106959
99643.4
59960.6
129190
96534.8
126342
98857.1
98161.2
103789
92788.7
89196.7
170490
61334.6
74445.3
168739
99799.3
95233.7
87737.3
144345
82829.4
87103.7
84859.2
143463
100416
101850
118782
92594.9
101504
117156
51681
116768
98956.4
108307
115449
80580.2
98084.7
102109
98666.5
104596
99939
102250
99461.9
100166
104335
92802.9
85101.5
118535
76770.8
116326
157899
75302
152311
71188.5
102505
101545
95747.8
107237
84129.5
84977.9
100489
101048
101411
106993
107796
101995
100081
100588
101239
102113
90348.1
134228
74741.9
134502
120348
86575.4
96302
117189
99645.1
100155
96894.4
102865
100828
108700
108013
94661.2
69607.1
115981
97045
120293
98732
99686.8
100561
101365
100574
113634
100009
112167
84452.4
95973.6
114022
101656
92877.8
123647
105796
79309.4
102490
96443.9
55032.3
129039
100371
127051
99718.1
91637.9
114414
104572
71334.9
100140
98737.2
102979
101834
102074
71533.9
96825.1
64533.8
125616
89288.8
87580.2
101622
100655
103199
59346.4
106343
103502
114689
99396.5
89552.1
104305
100275
106456
97884.1
131339
83187.3
91566.5
130887
93423.5
103067
83345.3
100569
102436
97788.3
97924.6
91905.1
78321.2
155308
100514
142791
100429
81577.7
102365
75919.6
92889.6
123070
102234
97067
99949.3
98325.4
103208
98221.8
103484
98466.6
105375
111740
100003
98560.7
101062
98610.1
104158
100402
102697
98357.8
96226.7
94095.7
136278
65064
134923
97571.7
84656.7
121913
88148.4
128700
107293
105119
91305.1
114182
99586.7
99428.1
70305.2
53858.7
116202
102982
114543
109392
112093
73848.5
79189.4
99065.7
103308
98597.3
130311
91617.8
97338.8
95764
100123
97142.5
102100
91399.8
99297.8
100976
95369.3
90565.7
100087
104896
102135
103996
123870
48866.7
123045
86844.7
120813
86713.8
78753.1
69355.9
167178
140152
167070
137079
68659
107867
104168
104103
101970
110604
61372
99709.4
79450.2
81104.1
97748.3
118917
96991.8
104362
105789
99616.6
107920
101027
100180
107049
107690
99294.3
98823.9
100549
94959.4
102435
91317.5
102717
93943.5
103172
102023
110825
63050.7
102715
101684
101455
107573
100841
102520
50151.5
124349
105195
131560
93391.6
99152.6
107205
90391.7
104154
98767.8
110942
100129
99380.9
97081.5
100012
104438
100294
97691.2
108342
99434.3
101799
88931.8
99432.8
115432
96566.3
101023
94323.9
101521
91898.9
118295
100353
59344.3
133967
95626.7
135212
109679
100530
76388.8
211003
52361
206406
98847.3
78459.5
92102.2
104453
101862
96395.6
87354.9
103004
71514
118734
121497
84180.5
90467.4
102260
100327
101408
100081
100123
80980.7
94642.3
94854.3
100703
94859.7
103979
114952
58164.7
114592
127915
78044.3
155655
131884
124146
126856
95217.4
148604
142990
32061
142014
87961.7
176328
117451
130146
148024
135299
64071.5
84141.4
146335
122719
109621
107999
160927
146394
108010
152102
138068
125071
74198.5
128338
164218
132447
37593.7
41486.3
153954
101255
177906
160534
119942
76956.5
114737
158210
118992
127489
128209
136142
136097
92621.9
7960.69
153593
75173.3
185886
90055
112913
168768
138217
57142.8
134529
107936
169537
162994
75251.6
138585
108564
128097
147414
148679
121733
126789
145129
134781
99313.6
18888.1
18260.4
137865
68593.4
150668
92470.9
178841
171108
111276
146760
130922
127771
56180.5
78565
154046
118166
189921
148571
107254
75813.8
109257
157823
129255
114431
83321
116049
127762
157776
126123
132724
133303
144481
122856
161792
114016
43566.3
53427.8
155764
145179
73122.1
97147
153022
131961
139359
124401
87335.7
123091
148453
119523
125755
126830
77803.2
172487
135410
89265.2
171843
50317.6
119879
96397.4
146053
100508
45124.9
163765
148677
134913
151236
136770
121547
170573
142259
89347.9
81498.4
121409
101584
140140
145859
144824
177391
66813.2
1396.96
186592
19519.6
19721.3
177101
162191
147438
98295.4
118042
65562.1
38925
170921
131784
84106.4
57966.8
121044
167419
123429
122109
133630
152935
146355
113547
59037.3
152717
105144
115430
129253
123839
123800
123120
6150.56
9560.29
149164
80748.8
182652
172914
140005
64913
155789
135983
126449
146843
114929
157493
160554
89692.2
110474
71810.7
93798
125038
65654.8
138255
106820
159532
94815.4
112114
64134.3
175927
153130
146436
85589.7
20641.4
179194
121325
144763
138537
98452.5
48298.2
163182
135230
93390.9
171983
143110
104310
94309.9
78525.9
132482
132101
136784
127239
138446
155032
142975
78652.8
120723
144499
135673
27456.7
172904
122288
148739
55862.2
145523
177648
134329
82380.7
94666.5
149930
94370.2
84575.4
68892.5
155197
115071
127516
123772
29862.5
30136.5
150398
110097
162578
139255
80926.8
154394
103504
114722
87264
168252
112992
43407.1
50461.7
127540
138139
149518
126848
140408
69499.8
121767
148654
75010.3
17962
179007
189740
28454.1
147061
129898
163105
10569.7
12894.7
134438
60727.8
181178
161021
154829
92367.5
119738
167135
113861
79560.8
115325
113700
136153
109335
132434
111348
110308
124420
136600
155580
122892
106736
103279
146106
128579
129512
146251
133550
138891
102741
63303.7
201069
143793
113738
146745
152870
128192
76460.7
82274.1
155951
139706
143098
117093
123920
156527
165591
120643
54375.3
79159.8
92293.6
106178
161954
156603
115894
66590
162292
31680.9
130944
153703
81411.2
122005
119675
137221
142788
140752
137778
147790
98613
121488
61208.6
116939
128348
65173.6
178734
129079
165021
155825
4294.54
3035.55
163935
65678.5
185354
176313
160572
75947
121984
88620.6
64050.3
111692
165991
117358
157850
176157
116671
92017
138928
134369
100906
131245
127865
111087
125283
130308
136403
127346
109145
122399
139201
153743
151531
130307
157574
120396
35519.2
46931.6
173580
113706
95514.5
147813
120422
137889
84604.1
109558
184453
137537
137495
78177.3
168348
27213.6
188901
145569
149429
119391
116295
138019
133359
138957
126288
137197
109004
164229
58455
115624
148174
114241
156036
60460.2
127388
165846
47513
128578
90960.9
39983.5
58887.9
61185.4
178096
141229
96605.6
68824.3
140271
121109
2974.52
206995
72831.2
216539
154525
152203
70888.6
107399
139975
144100
96040.7
49020.3
152754
188166
161859
84938
14062.7
103185
94186.7
90879.3
133862
165105
103944
43710.8
144576
139835
72997.8
119220
166029
130207
31985.6
31118
48973.6
45234.5
31512.5
41448.8
37321.6
11478.7
42360.7
13902.7
87459.7
15426.2
85065.4
33264.1
38071.1
27130.9
31134.8
28616.7
33544.1
31325.1
64311.2
30214
35022
65628.5
32671.8
35093.7
38205.5
23429.2
37025.2
46117
29653.7
6502.71
45402.9
34005.5
41479.6
15656.8
20632.5
68583
18442.6
69684.4
92686.7
92915.4
20923.7
31100.9
29588.8
37628
27737.1
36469.6
4986.93
126908
5420.32
129297
64934
26468.5
18791.8
66850.6
25074.8
67025.1
24924.2
60039.5
69045.5
28688.4
54547
23967
34823.1
32530.7
37344.2
33306.8
21802.5
35728.9
33931.7
35535.4
48334.8
8978.65
11617
107308
11142.7
94578.6
9567.71
98581.3
114705
36987.8
35104.8
39376.9
38649
24075.5
30132.9
39780.5
44660.5
84186.4
82032.7
20307.4
37886.4
53350.7
36015.2
16161.8
19126.5
36592.3
35035.3
53448.7
34281
28679.8
51721.3
37580.6
43129.3
28262.4
32310.8
56221
24801
25944
19724.6
35062.2
56491.2
38285.1
35882.2
36873.2
27707.8
35850.1
59247.8
22515.7
11146.5
61734.2
31480.3
19274.9
8807.47
47771.1
35133.5
55662.7
23501.4
69344.7
26613.9
34935.7
70794.9
18990.9
19112
85599.3
31775.9
24960.7
30071.7
36606.7
77857.3
79688
17863.8
31995.1
35396.1
32621.5
37048.7
165426
2120.09
2007.18
151690
36879.1
39901.8
14574.4
12277.4
84513.8
106263
80389.9
18212.5
109091
11861.4
14858.2
73838.5
87492.8
18599
41519.4
54074.2
16778.1
17761.3
50914.2
52989.4
44807.9
39022.1
35458.8
69012.2
46766.3
24929.5
26379.6
22149.5
38799.8
38702.3
45106
39119.2
3100.44
6353.41
120003
5890.19
125508
134113
126642
5689.89
33402.4
35041
34692.2
34350.8
17470.4
30930.6
34096.2
33006.8
25349.7
38637.7
29512
25616.6
54680.9
27014.7
55408
33636.1
30777.4
35115.9
102450
15187.7
70318.6
99388.7
102384
10530.4
8559.63
106730
36779.3
60891.2
42084.8
18671.2
70597.9
73832
19924.1
25233.3
31329.1
70109.4
26385.5
32924.7
40755.2
55857.6
29844.2
44267
27032.4
36133.6
34872.8
30632.8
71858.6
29596.6
34437.6
58682.1
37409.5
13780.5
96561.7
44914.5
27733.2
23546.8
76662.6
77000.9
17172.6
90294
14010.6
37231.8
54379
27545.8
10607.9
23407.8
41350.9
30242
34143.4
19699.9
22460.7
12455.1
75617.2
25588.1
29140.2
35088.5
25415.8
13459.4
34258.9
97438
14649.1
37531.1
26681.4
45144.5
35824.2
37217.3
16194
44213.3
56650.3
37415.5
28625.4
36500.6
108506
10808
8944.4
110463
35138.9
85213.9
15149.7
27600.1
30031.3
37110.5
47420.2
5035.08
8507.96
125352
7467.2
108888
122560
107610
8730.94
32416.9
54493.8
43805.4
79571.2
22359.8
35654.8
35434.7
37691.9
22377.8
55786
32775.2
48868.7
36711.2
39297.5
38698.4
95369.9
12610.3
59825.6
97065
32996
60270.8
34885.5
80229.7
102287
15439.7
43841.2
33430.3
28587.4
30265.6
48654.5
46167.4
16412.5
15156
55495.7
33015.2
58480.6
31946.8
25476.8
53855.5
22573.2
21782.3
30567.8
99124.1
16278.3
36275.7
38621
38839.1
35289.9
32136.3
35026
30620.5
30696.4
81682.6
13296.8
44484.2
32357.9
37661.2
32373.1
38617.5
19979.7
59797.3
15184.8
15421.3
62318.6
31372.8
42893.9
2701.29
3084.47
151639
3952.92
139831
150079
145484
1977.35
37516.1
28777.2
23356.7
36647.4
46756.2
25756.9
53930.5
72608.6
25587
11268.7
46432.3
36185.1
16059.8
33394.5
42411.1
49882.9
52761.2
33245.2
73270.5
61129.5
21715.7
30864.1
11603.5
63687.9
29812.1
32606.5
36368.5
32014.6
37523.5
17372
70160.2
71949.2
15721.7
38858.8
50053.2
45659.7
14378.4
91404.2
48951.6
31256.6
27172.4
36244.9
36011.8
39653.5
15322.2
64059.5
22492.7
68155.3
22650
31098.5
56419.4
22169.2
77428.3
24587
36092.4
35026.2
64265.9
19382.2
80488.9
23856.2
22567
49794.8
89773.8
87215.7
15332.8
2682.85
204991
981.729
194073
41969
32902.6
32480.5
34999.2
31302.4
32953
23543.5
34621
45763
34510.2
110122
112308
5705.72
5228.86
29815.4
11292.1
28861.9
38089.5
37631.6
63651.8
21799.7
18276.4
30980.8
40966.4
51620.3
24441.7
10074.2
53314.6
121870
80538.3
152837
133115
112498
115551
96502.8
151640
131404
29977.7
135920
81563.9
168690
116098
121562
141578
128059
60948
82846.7
149909
113230
116073
98004.9
170838
148055
104345
142731
137794
119534
77239.4
102907
167592
125522
34076.5
40937.4
153367
97248.7
169939
155555
123072
67323.3
103395
149136
115002
121290
122957
137618
136526
84535.1
9644.53
154354
62259.2
191051
89864.9
99618.8
165236
133020
58257.4
131614
96968.4
167289
154681
63408.9
139434
106392
124081
141502
148249
116112
120638
142289
132017
97771.7
16828.1
18942
138019
58213
154528
83609.1
178077
170273
108447
147615
125437
126059
54756.6
75502
154271
114486
172729
146925
104571
74195.7
99006.2
155783
123747
105996
74791.2
108109
116100
156513
122435
134975
126358
136503
115102
153423
106181
42916.7
48212.5
155173
142805
69323.5
95039.7
140821
130935
128204
115454
77661.1
118834
152571
118420
125208
114880
79795.7
171986
132380
85892.4
168434
49838.8
119667
92219.2
143459
94564.7
43872.2
161321
145950
137198
156072
133905
112284
166543
135368
88208.1
72662
113166
96685.6
140528
148021
138582
167384
52115
1406.92
192089
19964.6
19529
182122
152905
152366
90130.5
117348
50224.8
35607
164077
133956
84470.2
62119.1
88509.2
158426
117874
114782
128662
148897
142149
105100
67000.6
150371
106936
114866
123075
123441
124174
115655
6601.3
7666.91
147411
72811
179088
174878
146676
51711.1
152427
134395
123728
141467
115708
157774
156105
82779.8
106450
71229.7
92009.2
119626
64526.4
136594
103773
154095
92007.8
108675
58812.4
178782
147105
149249
73444
18562.3
183075
116726
139485
136546
94711.7
42458.6
169148
136917
92224.7
164169
143307
98703.2
92598.7
75082.1
127324
136834
129535
114274
132504
152776
144020
75808.5
109658
144932
130865
30263.1
167740
116345
154540
53180.1
150688
173574
133489
81717.5
80232
151111
87061.1
87702
62804.4
153744
108933
120892
113169
29203.5
25969.7
162651
100459
161510
138269
73331.7
145182
101961
109870
85578.5
164238
111693
40546.7
44814.7
116686
144513
142001
115731
135348
69677.6
116946
145656
66661.5
18202.8
173605
171123
26638.4
149418
129235
158089
10119.8
10700.3
134328
44507
192770
155145
152852
82081.9
115333
176639
113617
76807.5
97371.7
107289
128172
103415
122507
112570
106544
112205
131988
144496
111616
108655
102896
147377
123775
126357
146019
130125
132654
100123
53620.4
200995
142082
96640.2
147587
151104
127883
70404.1
83116.6
154265
135301
140992
107330
116660
154460
164655
119119
52066.4
67619.8
93680.7
107089
162452
148489
104643
54090.4
156815
28212.9
131751
156268
77438.8
119021
111912
140944
142856
129599
134942
148718
87014.6
117711
62578.5
112653
111004
68725.9
181567