# vtk DataFile Version 2.0
wasora vtk output
ASCII
DATASET UNSTRUCTURED_GRID
POINTS 289 double
1 0 0
2 0 0
2 1 0
1 1 0
1.0625 0 0
1.125 0 0
1.1875 0 0
1.25 0 0
1.3125 0 0
1.375 0 0
1.4375 0 0
1.5 0 0
1.5625 0 0
1.625 0 0
1.6875 0 0
1.75 0 0
1.8125 0 0
1.875 0 0
1.9375 0 0
2 0.0625 0
2 0.125 0
2 0.1875 0
2 0.25 0
2 0.3125 0
2 0.375 0
2 0.4375 0
2 0.5 0
2 0.5625 0
2 0.625 0
2 0.6875 0
2 0.75 0
2 0.8125 0
2 0.875 0
2 0.9375 0
1.9375 1 0
1.875 1 0
1.8125 1 0
1.75 1 0
1.6875 1 0
1.625 1 0
1.5625 1 0
1.5 1 0
1.4375 1 0
1.375 1 0
1.3125 1 0
1.25 1 0
1.1875 1 0
1.125 1 0
1.0625 1 0
1 0.9375 0
1 0.875 0
1 0.8125 0
1 0.75 0
1 0.6875 0
1 0.625 0
1 0.5625 0
1 0.5 0
1 0.4375 0
1 0.375 0
1 0.3125 0
1 0.25 0
1 0.1875 0
1 0.125 0
1 0.0625 0
1.5 0.0625 0
1.9375 0.5 0
1.4375 0.9375 0
1.625 0.9375 0
1.0625 0.5 0
1.0625 0.75 0
1.9375 0.6875 0
1.3125 0.0625 0
1.75 0.0625 0
1.75 0.9375 0
1.0625 0.3125 0
1.9375 0.125 0
1.9375 0.25 0
1.9375 0.8125 0
1.1875 0.9375 0
1.1875 0.0625 0
1.0625 0.1875 0
1.0625 0.0625 0
1.9375 0.875 0
1.0625 0.9375 0
1.4375 0.0625 0
1.625 0.0625 0
1.875 0.0625 0
1.9375 0.0625 0
1.9375 0.3125 0
1.9375 0.375 0
1.9375 0.5625 0
1.9375 0.9375 0
1.8125 0.9375 0
1.5 0.9375 0
1.3125 0.9375 0
1.0625 0.875 0
1.0625 0.6875 0
1.0625 0.625 0
1.0625 0.4375 0
1.5 0.125 0
1.875 0.5 0
1.4375 0.875 0
1.125 0.5 0
1.125 0.75 0
1.875 0.25 0
1.75 0.875 0
1.875 0.125 0
1.125 0.0625 0
1.25 0.0625 0
1.375 0.0625 0
1.5625 0.0625 0
1.6875 0.0625 0
1.8125 0.0625 0
1.9375 0.1875 0
1.9375 0.4375 0
1.9375 0.625 0
1.9375 0.75 0
1.875 0.9375 0
1.6875 0.9375 0
1.5625 0.9375 0
1.375 0.9375 0
1.25 0.9375 0
1.125 0.9375 0
1.0625 0.8125 0
1.0625 0.5625 0
1.0625 0.375 0
1.0625 0.25 0
1.0625 0.125 0
1.875 0.8125 0
1.875 0.3125 0
1.125 0.6875 0
1.8125 0.25 0
1.1875 0.75 0
1.3125 0.125 0
1.125 0.3125 0
1.5625 0.875 0
1.875 0.625 0
1.75 0.125 0
1.1875 0.875 0
1.875 0.375 0
1.125 0.625 0
1.625 0.875 0
1.875 0.6875 0
1.1875 0.125 0
1.125 0.25 0
1.125 0.1875 0
1.875 0.875 0
1.4375 0.125 0
1.6875 0.125 0
1.875 0.5625 0
1.8125 0.875 0
1.5 0.875 0
1.25 0.875 0
1.125 0.875 0
1.125 0.4375 0
1.125 0.8125 0
1.875 0.1875 0
1.6875 0.875 0
1.8125 0.125 0
1.125 0.125 0
1.875 0.75 0
1.625 0.125 0
1.3125 0.875 0
1.5625 0.125 0
1.875 0.4375 0
1.375 0.875 0
1.125 0.5625 0
1.5625 0.1875 0
1.1875 0.5 0
1.8125 0.5 0
1.4375 0.8125 0
1.8125 0.625 0
1.6875 0.8125 0
1.1875 0.3125 0
1.5 0.1875 0
1.5 0.8125 0
1.75 0.8125 0
1.25 0.125 0
1.375 0.125 0
1.125 0.375 0
1.8125 0.8125 0
1.8125 0.3125 0
1.1875 0.6875 0
1.75 0.1875 0
1.8125 0.1875 0
1.1875 0.8125 0
1.25 0.8125 0
1.5625 0.8125 0
1.8125 0.6875 0
1.1875 0.1875 0
1.1875 0.625 0
1.8125 0.375 0
1.6875 0.1875 0
1.3125 0.8125 0
1.5625 0.25 0
1.4375 0.75 0
1.75 0.3125 0
1.25 0.6875 0
1.1875 0.4375 0
1.375 0.1875 0
1.75 0.625 0
1.4375 0.1875 0
1.8125 0.5625 0
1.5 0.75 0
1.75 0.25 0
1.25 0.75 0
1.3125 0.1875 0
1.625 0.8125 0
1.1875 0.25 0
1.8125 0.75 0
1.6875 0.75 0
1.1875 0.375 0
1.25 0.1875 0
1.1875 0.5625 0
1.625 0.1875 0
1.8125 0.4375 0
1.375 0.8125 0
1.4375 0.6875 0
1.25 0.5 0
1.4375 0.25 0
1.25 0.375 0
1.5625 0.75 0
1.75 0.4375 0
1.75 0.5625 0
1.25 0.625 0
1.5 0.25 0
1.25 0.3125 0
1.75 0.75 0
1.75 0.6875 0
1.6875 0.25 0
1.3125 0.75 0
1.375 0.25 0
1.3125 0.25 0
1.625 0.75 0
1.25 0.25 0
1.75 0.375 0
1.625 0.25 0
1.375 0.75 0
1.5 0.3125 0
1.6875 0.375 0
1.6875 0.5625 0
1.5625 0.6875 0
1.3125 0.6875 0
1.75 0.5 0
1.25 0.4375 0
1.5 0.6875 0
1.6875 0.625 0
1.6875 0.6875 0
1.4375 0.3125 0
1.3125 0.375 0
1.3125 0.3125 0
1.625 0.3125 0
1.6875 0.3125 0
1.25 0.5625 0
1.375 0.6875 0
1.4375 0.625 0
1.5 0.375 0
1.6875 0.5 0
1.625 0.375 0
1.3125 0.5625 0
1.5625 0.3125 0
1.3125 0.5 0
1.6875 0.4375 0
1.5 0.625 0
1.375 0.3125 0
1.625 0.6875 0
1.625 0.5625 0
1.3125 0.4375 0
1.3125 0.625 0
1.4375 0.5625 0
1.4375 0.375 0
1.625 0.5 0
1.5625 0.625 0
1.375 0.375 0
1.375 0.5 0
1.625 0.625 0
1.375 0.625 0
1.625 0.4375 0
1.5625 0.375 0
1.5 0.4375 0
1.5 0.5625 0
1.5625 0.5 0
1.5625 0.5625 0
1.375 0.4375 0
1.375 0.5625 0
1.5625 0.4375 0
1.4375 0.5 0
1.4375 0.4375 0
1.5 0.5 0

CELLS 256 1280
4  101 170 175 151
4  256 238 260 278
4  245 263 272 241
4  222 243 257 262
4  239 262 277 258
4  256 278 285 279
4  175 170 195 203
4  225 219 201 174
4  211 220 244 198
4  245 241 221 203
4  219 225 238 248
4  287 270 256 279
4  251 258 278 260
4  277 285 278 258
4  261 267 283 274
4  259 284 276 268
4  287 279 288 286
4  0 4 81 63
4  6 79 107 5
4  4 5 107 81
4  8 71 108 7
4  6 7 108 79
4  8 9 109 71
4  10 84 109 9
4  10 11 64 84
4  12 110 64 11
4  13 85 110 12
4  15 72 111 14
4  13 14 111 85
4  15 16 112 72
4  17 86 112 16
4  1 19 87 18
4  17 18 87 86
4  20 75 87 19
4  20 21 113 75
4  22 76 113 21
4  22 23 88 76
4  23 24 89 88
4  26 65 114 25
4  24 25 114 89
4  27 90 65 26
4  29 70 115 28
4  27 28 115 90
4  29 30 116 70
4  31 77 116 30
4  31 32 82 77
4  2 34 91 33
4  32 33 91 82
4  34 35 117 91
4  36 92 117 35
4  37 73 92 36
4  39 67 118 38
4  37 38 118 73
4  39 40 119 67
4  41 93 119 40
4  41 42 66 93
4  42 43 120 66
4  44 94 120 43
4  46 78 121 45
4  44 45 121 94
4  46 47 122 78
4  48 83 122 47
4  3 49 83 48
4  49 50 95 83
4  52 69 123 51
4  50 51 123 95
4  52 53 96 69
4  53 54 97 96
4  56 68 124 55
4  54 55 124 97
4  57 98 68 56
4  59 74 125 58
4  57 58 125 98
4  59 60 126 74
4  61 80 126 60
4  61 62 127 80
4  63 81 127 62
4  90 149 100 65
4  119 135 141 67
4  115 70 142 136
4  87 75 106 86
4  126 80 145 144
4  91 117 146 82
4  77 82 146 128
4  64 99 147 84
4  109 84 147 178
4  111 148 161 85
4  110 85 161 163
4  76 88 129 104
4  88 89 139 129
4  114 164 139 89
4  149 90 115 136
4  73 105 150 92
4  117 92 150 146
4  66 101 151 93
4  119 93 151 135
4  121 152 162 94
4  83 95 153 122
4  69 96 130 103
4  96 97 140 130
4  124 166 140 97
4  68 98 154 102
4  125 179 154 98
4  64 110 163 99
4  167 174 99 163
4  147 99 174 201
4  65 100 164 114
4  202 169 100 149
4  164 100 169 215
4  66 120 165 101
4  68 102 166 124
4  154 198 168 102
4  166 102 168 213
4  69 103 155 123
4  76 104 156 113
4  73 118 157 105
4  157 172 176 105
4  86 106 158 112
4  75 113 156 106
4  81 107 159 127
4  79 143 159 107
4  71 133 177 108
4  79 108 177 143
4  71 109 178 133
4  72 137 148 111
4  72 112 158 137
4  77 128 160 116
4  70 116 160 142
4  67 141 157 118
4  94 162 165 120
4  78 138 152 121
4  78 122 153 138
4  95 123 155 153
4  74 134 179 125
4  74 126 144 134
4  80 127 159 145
4  146 150 180 128
4  104 129 181 131
4  103 130 182 132
4  104 131 184 156
4  184 131 204 183
4  181 196 204 131
4  103 132 185 155
4  185 132 205 186
4  182 197 205 132
4  178 199 206 133
4  151 175 187 135
4  141 135 187 207
4  149 136 171 202
4  153 155 185 138
4  129 139 191 181
4  130 140 190 182
4  157 141 207 172
4  136 142 188 171
4  159 143 189 145
4  134 144 208 173
4  145 189 208 144
4  201 199 178 147
4  137 183 192 148
4  105 176 180 150
4  138 185 186 152
4  198 154 179 211
4  106 156 184 158
4  137 158 184 183
4  128 180 209 160
4  142 160 209 188
4  163 161 214 167
4  148 192 214 161
4  152 186 193 162
4  139 164 215 191
4  101 165 216 170
4  162 193 216 165
4  140 166 213 190
4  174 167 194 225
4  244 218 168 198
4  222 215 169 243
4  134 173 211 179
4  211 173 226 220
4  187 175 203 221
4  180 176 227 209
4  172 210 227 176
4  143 177 212 189
4  133 206 212 177
4  221 233 207 187
4  171 188 228 200
4  209 227 228 188
4  182 190 224 197
4  181 191 235 196
4  215 222 235 191
4  183 204 229 192
4  214 192 229 236
4  186 205 230 193
4  216 193 230 237
4  167 214 236 194
4  238 225 194 260
4  236 251 260 194
4  170 216 237 195
4  203 195 217 245
4  204 196 252 229
4  235 239 252 196
4  205 197 242 230
4  201 219 231 199
4  171 200 223 202
4  223 200 246 240
4  169 202 223 243
4  199 231 232 206
4  172 207 233 210
4  189 212 234 208
4  173 208 234 226
4  227 210 247 228
4  206 232 234 212
4  168 218 253 213
4  190 213 253 224
4  195 237 254 217
4  263 245 217 255
4  254 276 255 217
4  261 259 253 218
4  197 224 268 242
4  253 259 268 224
4  234 232 250 226
4  220 226 250 249
4  200 228 247 246
4  237 230 242 254
4  219 248 264 231
4  232 231 264 250
4  221 241 265 233
4  210 233 265 247
4  222 262 239 235
4  229 252 251 236
4  270 248 238 256
4  223 240 257 243
4  246 275 266 240
4  276 254 242 268
4  220 249 267 244
4  218 244 267 261
4  247 265 275 246
4  264 248 270 273
4  250 264 273 249
4  283 267 249 273
4  284 269 255 276
4  240 266 271 257
4  262 257 271 277
4  259 261 274 284
4  255 269 280 263
4  272 263 280 282
4  241 272 275 265
4  275 272 282 266
4  271 266 282 281
4  286 288 280 269
4  285 277 271 281
4  270 287 283 273
4  281 282 280 288
4  274 283 287 286
4  288 279 285 281
4  286 269 284 274
4  258 251 252 239

CELL_TYPES 256
9
9
9
9
9
9
9
9
9
9
9
9
9
9
9
9
9
9
9
9
9
9
9
9
9
9
9
9
9
9
9
9
9
9
9
9
9
9
9
9
9
9
9
9
9
9
9
9
9
9
9
9
9
9
9
9
9
9
9
9
9
9
9
9
9
9
9
9
9
9
9
9
9
9
9
9
9
9
9
9
9
9
9
9
9
9
9
9
9
9
9
9
9
9
9
9
9
9
9
9
9
9
9
9
9
9
9
9
9
9
9
9
9
9
9
9
9
9
9
9
9
9
9
9
9
9
9
9
9
9
9
9
9
9
9
9
9
9
9
9
9
9
9
9
9
9
9
9
9
9
9
9
9
9
9
9
9
9
9
9
9
9
9
9
9
9
9
9
9
9
9
9
9
9
9
9
9
9
9
9
9
9
9
9
9
9
9
9
9
9
9
9
9
9
9
9
9
9
9
9
9
9
9
9
9
9
9
9
9
9
9
9
9
9
9
9
9
9
9
9
9
9
9
9
9
9
9
9
9
9
9
9
9
9
9
9
9
9
9
9
9
9
9
9
9
9
9
9
9
9
9
9
9
9
9
9
POINT_DATA 289
VECTORS u-v-w double
2.99845e-05 -6.4045e-13 0
2.44049e-06 3.86721e-13 0
0 0 0
2.98819e-05 2.97061e-13 0
2.70228e-05 -7.78892e-13 0
2.43214e-05 -3.93681e-13 0
2.18397e-05 -2.58333e-13 0
1.95455e-05 -1.22985e-13 0
1.74124e-05 2.97049e-13 0
1.54194e-05 1.74364e-13 0
1.35489e-05 5.1679e-14 0
1.17869e-05 -4.34667e-14 0
1.01222e-05 -1.4811e-13 0
8.54635e-06 -2.52753e-13 0
7.05418e-06 -3.57396e-13 0
5.64565e-06 1.22798e-13 0
4.33202e-06 -3.56893e-14 0
3.15443e-06 -1.94176e-13 0
2.3153e-06 -2.29779e-13 0
0 0 0
0 0 0
0 0 0
0 0 0
0 0 0
0 0 0
0 0 0
0 0 0
0 0 0
0 0 0
0 0 0
0 0 0
0 0 0
0 0 0
0 0 0
1.26488e-06 4.07912e-13 0
2.57264e-06 2.70697e-13 0
3.92779e-06 1.33482e-13 0
5.33545e-06 -3.73301e-15 0
6.80143e-06 -1.42965e-13 0
8.33242e-06 -1.43403e-13 0
9.93615e-06 -1.43841e-13 0
1.16216e-05 -1.4428e-13 0
1.33994e-05 -1.25433e-13 0
1.52821e-05 -1.20646e-13 0
1.72845e-05 -1.15859e-13 0
1.94247e-05 -1.11073e-13 0
2.17245e-05 8.82929e-14 0
2.42106e-05 1.57882e-13 0
2.6916e-05 2.27472e-13 0
2.98826e-05 -7.73644e-09 0
2.98847e-05 -1.53111e-08 0
2.98882e-05 -2.25517e-08 0
2.98931e-05 -2.92695e-08 0
2.98993e-05 -3.52551e-08 0
2.99068e-05 -4.02731e-08 0
2.99154e-05 -4.40726e-08 0
2.9925e-05 -4.63956e-08 0
2.99351e-05 -4.69994e-08 0
2.99455e-05 -4.5687e-08 0
2.99556e-05 -4.23398e-08 0
2.9965e-05 -3.69534e-08 0
2.9973e-05 -2.96647e-08 0
2.99792e-05 -2.07642e-08 0
2.99831e-05 -1.06913e-08 0
1.17825e-05 -1.45068e-08 0
1.26916e-06 -1.86082e-09 0
1.34e-05 -3.26488e-09 0
8.33281e-06 -2.04271e-09 0
2.69603e-05 -3.83191e-08 0
2.69274e-05 -2.44683e-08 0
1.26619e-06 -4.87744e-10 0
1.74103e-05 -8.52775e-09 0
5.61811e-06 -4.68554e-08 0
5.33568e-06 -1.05918e-09 0
2.69923e-05 -3.46512e-08 0
1.3525e-06 -6.88106e-08 0
1.28784e-06 -1.30965e-08 0
1.26532e-06 -1.68119e-10 0
2.17252e-05 -4.8664e-09 0
2.18381e-05 -7.41836e-09 0
2.70107e-05 -2.41718e-08 0
2.70214e-05 -8.69157e-09 0
1.26507e-06 -8.82061e-11 0
2.69167e-05 -6.49846e-09 0
1.35456e-05 -1.17856e-08 0
8.5369e-06 -2.40217e-08 0
3.00541e-06 -1.19393e-07 0
1.73801e-06 -2.43471e-07 0
1.27897e-06 -7.33967e-09 0
1.27402e-06 -4.48555e-09 0
1.26783e-06 -1.21202e-09 0
1.26493e-06 -3.70877e-11 0
3.92796e-06 -6.09298e-10 0
1.16222e-05 -2.90435e-09 0
1.72852e-05 -3.94559e-09 0
2.69188e-05 -1.28478e-08 0
2.69338e-05 -2.93949e-08 0
2.69415e-05 -3.34796e-08 0
2.69708e-05 -3.86917e-08 0
1.17701e-05 -2.66473e-08 0
2.58195e-06 -6.38689e-09 0
1.34018e-05 -6.58221e-09 0
2.42559e-05 -3.31682e-08 0
2.42222e-05 -2.09884e-08 0
2.62425e-06 -3.71156e-08 0
5.3364e-06 -2.20567e-09 0
2.78389e-06 -1.2484e-07 0
2.43199e-05 -7.69199e-09 0
1.95436e-05 -7.71854e-09 0
1.54168e-05 -9.85531e-09 0
1.01159e-05 -1.83713e-08 0
7.03884e-06 -3.27041e-08 0
4.27382e-06 -7.25153e-08 0
1.30964e-06 -2.62433e-08 0
1.27108e-06 -2.86011e-09 0
1.26688e-06 -7.7883e-10 0
1.26568e-06 -2.94391e-10 0
2.57274e-06 -2.52379e-10 0
6.80174e-06 -1.55262e-09 0
9.93662e-06 -2.49805e-09 0
1.52827e-05 -3.59986e-09 0
1.94254e-05 -4.34884e-09 0
2.42113e-05 -5.56125e-09 0
2.69224e-05 -1.8893e-08 0
2.69504e-05 -3.65211e-08 0
2.69817e-05 -3.74951e-08 0
2.70022e-05 -3.01698e-08 0
2.70173e-05 -1.68953e-08 0
2.57358e-06 -9.06111e-10 0
2.60369e-06 -2.23691e-08 0
2.42287e-05 -2.52527e-08 0
4.00722e-06 -5.46264e-08 0
2.17362e-05 -1.85346e-08 0
1.74041e-05 -1.62612e-08 0
2.42892e-05 -3.03256e-08 0
9.93805e-06 -5.0958e-09 0
2.57698e-06 -3.02308e-09 0
5.55417e-06 -7.19224e-08 0
2.17274e-05 -9.64311e-09 0
2.59277e-06 -1.4239e-08 0
2.42366e-05 -2.88195e-08 0
8.33401e-06 -4.19251e-09 0
2.57547e-06 -2.07163e-09 0
2.18333e-05 -1.43392e-08 0
2.42996e-05 -2.65015e-08 0
2.43085e-05 -2.13023e-08 0
2.57305e-06 -5.40979e-10 0
1.35362e-05 -2.19945e-08 0
7.00031e-06 -5.42083e-08 0
2.57905e-06 -4.38673e-09 0
3.92846e-06 -1.28099e-09 0
1.16238e-05 -5.88933e-09 0
1.94276e-05 -8.64376e-09 0
2.42135e-05 -1.10002e-08 0
2.42668e-05 -3.36064e-08 0
2.42171e-05 -1.61879e-08 0
2.66488e-06 -6.56483e-08 0
6.8027e-06 -3.20761e-09 0
4.15939e-06 -9.55165e-08 0
2.43155e-05 -1.49275e-08 0
2.57437e-06 -1.39519e-09 0
8.51196e-06 -4.18237e-08 0
1.72873e-05 -7.87418e-09 0
1.00988e-05 -3.30131e-08 0
2.5862e-06 -9.42049e-09 0
1.52847e-05 -7.21911e-09 0
2.42457e-05 -3.15169e-08 0
1.00751e-05 -4.1803e-08 0
2.17704e-05 -3.01744e-08 0
3.943e-06 -1.23124e-08 0
1.34049e-05 -1.00008e-08 0
3.93486e-06 -6.2572e-09 0
6.80434e-06 -5.0765e-09 0
2.18052e-05 -2.84396e-08 0
1.17522e-05 -3.48846e-08 0
1.16266e-05 -9.03347e-09 0
5.33764e-06 -3.53407e-09 0
1.95383e-05 -1.48308e-08 0
1.54093e-05 -1.86149e-08 0
2.42781e-05 -3.2689e-08 0
3.92932e-06 -2.0848e-09 0
3.97769e-06 -3.68166e-08 0
2.17427e-05 -2.24257e-08 0
5.48719e-06 -7.2265e-08 0
4.06369e-06 -8.0372e-08 0
2.17311e-05 -1.42339e-08 0
1.94312e-05 -1.28241e-08 0
9.9405e-06 -7.8951e-09 0
3.9324e-06 -4.44364e-09 0
2.18258e-05 -2.03331e-08 0
2.17507e-05 -2.57696e-08 0
3.96048e-06 -2.51213e-08 0
6.95408e-06 -6.104e-08 0
1.72907e-05 -1.1762e-08 0
1.00495e-05 -4.47105e-08 0
1.34094e-05 -1.35583e-08 0
5.40213e-06 -4.54516e-08 0
1.94427e-05 -2.05388e-08 0
2.17817e-05 -3.08775e-08 0
1.53979e-05 -2.54485e-08 0
5.34558e-06 -9.88335e-09 0
1.35222e-05 -2.95082e-08 0
3.93825e-06 -8.76489e-09 0
1.16307e-05 -1.24111e-08 0
5.43596e-06 -5.99959e-08 0
1.94362e-05 -1.6819e-08 0
1.73946e-05 -2.25669e-08 0
8.33607e-06 -6.56295e-09 0
2.18162e-05 -2.50899e-08 0
3.93061e-06 -3.10305e-09 0
6.80678e-06 -7.28434e-09 0
2.17935e-05 -3.03453e-08 0
1.953e-05 -2.08326e-08 0
2.176e-05 -2.84108e-08 0
8.47939e-06 -5.05056e-08 0
3.94992e-06 -1.74576e-08 0
1.5288e-05 -1.08713e-08 0
1.34153e-05 -1.72723e-08 0
1.94709e-05 -2.87238e-08 0
1.35056e-05 -3.38992e-08 0
1.9495e-05 -2.98068e-08 0
9.94408e-06 -1.09988e-08 0
5.3666e-06 -2.4736e-08 0
5.35039e-06 -1.34336e-08 0
1.94508e-05 -2.38673e-08 0
1.17318e-05 -3.88636e-08 0
1.95075e-05 -2.83724e-08 0
5.33949e-06 -5.15456e-09 0
5.34206e-06 -7.20909e-09 0
6.91249e-06 -5.69446e-08 0
1.72957e-05 -1.55734e-08 0
1.53841e-05 -2.99456e-08 0
1.73827e-05 -2.70752e-08 0
8.3391e-06 -9.27662e-09 0
1.95194e-05 -2.53924e-08 0
5.38067e-06 -3.36217e-08 0
8.44675e-06 -5.10767e-08 0
1.52927e-05 -1.45564e-08 0
1.17115e-05 -3.91972e-08 0
6.85729e-06 -3.83723e-08 0
6.82096e-06 -1.76241e-08 0
9.94896e-06 -1.45112e-08 0
1.73021e-05 -1.925e-08 0
5.35707e-06 -1.82188e-08 0
1.94826e-05 -2.98514e-08 0
1.16361e-05 -1.60825e-08 0
6.81476e-06 -1.33531e-08 0
6.81017e-06 -9.98176e-09 0
1.34883e-05 -3.53794e-08 0
1.73559e-05 -3.05856e-08 0
1.73695e-05 -2.97004e-08 0
8.41854e-06 -4.6522e-08 0
6.88039e-06 -4.80063e-08 0
1.94602e-05 -2.66567e-08 0
1.5299e-05 -1.82515e-08 0
1.34228e-05 -2.1123e-08 0
1.16929e-05 -3.69625e-08 0
6.82938e-06 -2.30612e-08 0
8.39611e-06 -3.97911e-08 0
1.73196e-05 -2.57835e-08 0
1.00255e-05 -4.31572e-08 0
1.73305e-05 -2.8307e-08 0
6.841e-06 -2.99332e-08 0
1.16432e-05 -2.00811e-08 0
1.53691e-05 -3.21205e-08 0
8.34328e-06 -1.24691e-08 0
8.35625e-06 -2.08846e-08 0
1.73427e-05 -3.00113e-08 0
1.73101e-05 -2.26994e-08 0
1.34321e-05 -2.50285e-08 0
1.34717e-05 -3.45535e-08 0
8.36601e-06 -2.63776e-08 0
9.95539e-06 -1.85236e-08 0
1.53542e-05 -3.22902e-08 0
1.53274e-05 -2.84774e-08 0
8.34886e-06 -1.62878e-08 0
1.53068e-05 -2.18957e-08 0
8.37895e-06 -3.27731e-08 0
1.00048e-05 -3.89676e-08 0
1.16768e-05 -3.32411e-08 0
1.16521e-05 -2.43845e-08 0
9.97433e-06 -2.82043e-08 0
9.96369e-06 -2.30956e-08 0
1.53401e-05 -3.09176e-08 0
1.53162e-05 -2.53709e-08 0
9.98785e-06 -3.3661e-08 0
1.34433e-05 -2.88091e-08 0
1.34565e-05 -3.21465e-08 0
1.16632e-05 -2.88688e-08 0
SCALARS sigma double
LOOKUP_TABLE default
160160
160157
160158
160160
160160
160160
160159
160159
160159
160159
160159
160158
160158
160158
160158
160158
160158
160158
160157
160158
160158
160158
160158
160158
160158
160158
160158
160158
160158
160158
160158
160158
160158
160158
160158
160158
160158
160158
160158
160158
160158
160158
160159
160159
160159
160159
160159
160160
160160
160160
160160
160160
160160
160160
160160
160160
160160
160160
160160
160160
160160
160160
160160
160160
160158
160158
160159
160158
160160
160160
160158
160159
160158
160158
160160
160158
160158
160158
160159
160159
160160
160160
160158
160160
160159
160158
160158
160158
160158
160158
160158
160158
160158
160158
160159
160160
160160
160160
160160
160158
160158
160159
160160
160160
160158
160158
160158
160160
160159
160159
160158
160158
160158
160158
160158
160158
160158
160158
160158
160158
160159
160159
160160
160160
160160
160160
160160
160160
160158
160158
160160
160158
160159
160159
160160
160158
160158
160158
160159
160158
160160
160158
160158
160159
160160
160160
160158
160159
160158
160158
160158
160158
160159
160160
160160
160160
160158
160158
160158
160160
160158
160158
160159
160158
160158
160159
160160
160158
160159
160158
160159
160158
160158
160159
160158
160158
160158
160159
160159
160160
160158
160158
160159
160158
160158
160159
160159
160158
160158
160159
160159
160158
160158
160159
160158
160159
160158
160159
160159
160159
160158
160159
160158
160158
160158
160159
160159
160158
160159
160158
160158
160159
160159
160159
160158
160158
160159
160159
160159
160159
160159
160158
160158
160158
160159
160158
160159
160158
160158
160158
160159
160159
160159
160158
160159
160158
160158
160159
160158
160158
160158
160158
160159
160158
160159
160158
160158
160158
160159
160159
160159
160158
160158
160159
160159
160159
160158
160158
160158
160159
160158
160159
160158
160158
160159
160158
160158
160159
160159
160159
160159
160158
160158
160159
160159
160158
160159
160158
160158
160158
160158
160158
160158
160159
160159
160158
160159
160159
160158
