# vtk DataFile Version 2.0
wasora vtk output
ASCII
DATASET UNSTRUCTURED_GRID
POINTS 748 double
1 0 0
0 1 0
2 0 0
0 2 0
0.998795 0.0490677 0
0.995185 0.0980171 0
0.989177 0.14673 0
0.980785 0.19509 0
0.970031 0.24298 0
0.95694 0.290285 0
0.941544 0.33689 0
0.92388 0.382683 0
0.903989 0.427555 0
0.881921 0.471397 0
0.857729 0.514103 0
0.83147 0.55557 0
0.803208 0.595699 0
0.77301 0.634393 0
0.740951 0.671559 0
0.707107 0.707107 0
0.671559 0.740951 0
0.634393 0.77301 0
0.595699 0.803208 0
0.55557 0.83147 0
0.514103 0.857729 0
0.471397 0.881921 0
0.427555 0.903989 0
0.382683 0.92388 0
0.33689 0.941544 0
0.290285 0.95694 0
0.24298 0.970031 0
0.19509 0.980785 0
0.14673 0.989177 0
0.0980171 0.995185 0
0.0490677 0.998795 0
1.9994 0.0490825 0
1.99759 0.0981353 0
1.99458 0.147129 0
1.99037 0.196034 0
1.98496 0.244821 0
1.97835 0.293461 0
1.97056 0.341924 0
1.96157 0.390181 0
1.9514 0.438202 0
1.94006 0.48596 0
1.92755 0.533426 0
1.91388 0.580569 0
1.89906 0.627363 0
1.88309 0.67378 0
1.86599 0.71979 0
1.84776 0.765367 0
1.82842 0.810483 0
1.80798 0.85511 0
1.78645 0.899223 0
1.76384 0.942793 0
1.74017 0.985796 0
1.71546 1.02821 0
1.68971 1.07 0
1.66294 1.11114 0
1.63517 1.15162 0
1.60642 1.1914 0
1.57669 1.23046 0
1.54602 1.26879 0
1.51442 1.30635 0
1.4819 1.34312 0
1.44849 1.37908 0
1.41421 1.41421 0
1.37908 1.44849 0
1.34312 1.4819 0
1.30635 1.51442 0
1.26879 1.54602 0
1.23046 1.57669 0
1.1914 1.60642 0
1.15162 1.63517 0
1.11114 1.66294 0
1.07 1.68971 0
1.02821 1.71546 0
0.985796 1.74017 0
0.942793 1.76384 0
0.899223 1.78645 0
0.85511 1.80798 0
0.810483 1.82842 0
0.765367 1.84776 0
0.71979 1.86599 0
0.67378 1.88309 0
0.627363 1.89906 0
0.580569 1.91388 0
0.533426 1.92755 0
0.48596 1.94006 0
0.438202 1.9514 0
0.390181 1.96157 0
0.341924 1.97056 0
0.293461 1.97835 0
0.244821 1.98496 0
0.196034 1.99037 0
0.147129 1.99458 0
0.0981353 1.99759 0
0.0490825 1.9994 0
0 1.05 0
0 1.1 0
0 1.15 0
0 1.2 0
0 1.25 0
0 1.3 0
0 1.35 0
0 1.4 0
0 1.45 0
0 1.5 0
0 1.55 0
0 1.6 0
0 1.65 0
0 1.7 0
0 1.75 0
0 1.8 0
0 1.85 0
0 1.9 0
0 1.95 0
1.95 0 0
1.9 0 0
1.85 0 0
1.8 0 0
1.75 0 0
1.7 0 0
1.65 0 0
1.6 0 0
1.55 0 0
1.5 0 0
1.45 0 0
1.4 0 0
1.35 0 0
1.3 0 0
1.25 0 0
1.2 0 0
1.15 0 0
1.1 0 0
1.05 0 0
0.903868 0.544898 0
0.537709 0.90945 0
0.780156 0.711005 0
1.82927 0.65225 0
0.689022 1.81589 0
1.22837 1.50519 0
1.54121 1.18455 0
1.73864 0.870519 0
0.947885 1.69825 0
0.0579469 1.50267 0
1.49143 0.0570468 0
0.482756 1.89 0
1.89404 0.439858 0
1.0092 0.306348 0
0.304832 0.985862 0
0.0505838 1.6609 0
1.69886 0.0365308 0
0.275008 1.92501 0
0.0344551 1.29866 0
1.29941 0.036688 0
1.0409 0.153924 0
0.212711 1.03589 0
1.92273 0.277949 0
1.79847 0.0367598 0
0.0367662 1.80017 0
0.0581713 1.15634 0
1.95529 0.192423 0
0.190779 1.95631 0
1.6175 1.09496 0
1.43657 1.30144 0
1.13319 1.58709 0
1.15295 0.0548006 0
0.625817 0.850096 0
0.0522216 1.04922 0
1.04871 0.0513559 0
0.441275 0.956918 0
0.974336 0.40514 0
1.69478 0.956567 0
1.30695 1.43547 0
0.881562 1.75715 0
1.89038 0.0550787 0
0.0545827 1.89118 0
0.846078 0.63107 0
1.94126 0.10572 0
0.105089 1.94196 0
0.157629 1.04267 0
0.341866 0.983387 0
0.706624 0.784057 0
0.953134 0.452994 0
0.0354555 1.70231 0
1.02256 0.255831 0
1.60324 0.0574344 0
1.40077 0.0367874 0
0.0571238 1.39726 0
0.0575793 1.55627 0
1.20715 0.0552272 0
0.0564389 1.21217 0
0.383167 1.9056 0
1.89395 0.527162 0
0.524951 1.8952 0
0.612322 1.8662 0
1.81454 0.753747 0
1.38327 1.38778 0
1.04165 1.63873 0
1.63854 1.04416 0
0.793485 1.77336 0
1.84826 0.602144 0
1.76303 0.824051 0
1.60841 1.13193 0
1.47203 1.26352 0
1.17437 1.57541 0
1.91162 0.331994 0
0.0523156 1.94548 0
1.94507 0.0526309 0
1.58287 1.014 0
1.06595 1.55544 0
1.4294 1.22232 0
1.0049 0.478887 0
1.79679 0.576574 0
1.71466 0.788684 0
0.116344 1.5608 0
0.399675 1.02776 0
0.435651 1.84447 0
1.06405 0.321807 0
1.86351 0.261909 0
0.225058 1.09371 0
0.126547 1.23058 0
1.2131 0.111476 0
0.112467 1.883 0
1.88106 0.11378 0
0.582785 0.880663 0
0.876019 0.588665 0
0.278302 1.02271 0
0.667111 0.817893 0
0.8141 0.671808 0
0.49055 0.935342 0
0.993088 0.356021 0
1.04594 0.102629 0
0.0554582 1.10161 0
1.10013 0.0533219 0
0.744309 0.748373 0
0.929626 0.499539 0
0.391204 0.973178 0
0.104695 1.04703 0
1.03309 0.204925 0
1.54589 0.0580392 0
0.0558067 1.61102 0
0.0575299 1.4498 0
1.45564 0.0558032 0
1.65575 0.0557999 0
0.0600235 1.33718 0
1.34765 0.0555971 0
0.0547688 1.75107 0
1.74762 0.0559601 0
1.84409 0.0557013 0
0.0556999 1.8441 0
0.0465865 1.26362 0
1.25577 0.0558399 0
1.34886 1.40475 0
1.5731 1.15202 0
1.08937 1.6102 0
1.66698 0.996537 0
0.837723 1.75528 0
1.80409 0.708068 0
1.93915 0.149899 0
0.149888 1.93916 0
0.564772 1.86143 0
1.89077 0.491567 0
0.329643 1.9143 0
1.39112 1.34071 0
1.26683 1.4705 0
1.20186 1.52916 0
1.50633 1.22416 0
1.7176 0.915867 0
0.906353 1.73068 0
1.79083 0.781729 0
0.641322 1.84214 0
1.86313 0.558065 0
1.90217 0.385565 0
1.9387 0.226226 0
0.99469 1.66777 0
0.741531 1.79364 0
0.224082 1.94028 0
0.4357 1.89816 0
0.658567 1.761 0
0.25842 1.86776 0
0.111704 1.39484 0
1.31698 1.34478 0
0.108292 1.69519 0
1.84202 0.379894 0
1.60581 0.117919 0
1.18386 1.4659 0
1.66281 0.93223 0
0.777331 1.71607 0
1.09483 0.160424 0
0.284472 1.09111 0
1.04743 0.375 0
0.111444 1.10134 0
1.07746 0.267939 0
0.850068 1.69717 0
1.88514 0.187819 0
0.456828 1.01482 0
0.564759 0.963717 0
0.657784 0.898143 0
0.743317 0.828351 0
0.821183 0.75153 0
0.890928 0.667268 0
1.54034 0.118323 0
1.40147 0.108731 0
0.185552 1.88791 0
1.80276 0.111524 0
1.01269 1.58702 0
1.75252 0.743447 0
1.82884 0.511795 0
0.377494 1.84942 0
0.114667 1.62054 0
0.109831 1.80674 0
1.85166 0.321943 0
1.1345 1.521 0
1.15399 0.109933 0
0.586703 1.79307 0
1.46532 1.18024 0
1.6165 0.947211 0
1.26976 1.38913 0
1.55447 1.08694 0
0.167816 1.0983 0
1.28799 0.107216 0
0.0944076 1.28758 0
1.6863 0.11155 0
0.1164 1.50409 0
0.343282 1.03263 0
1.02768 0.42748 0
0.496168 1.84514 0
1.77735 0.631702 0
1.68836 0.842138 0
1.39507 1.26265 0
0.118383 1.15937 0
1.09872 0.106673 0
0.952176 0.576321 0
0.97967 0.528318 0
1.35112 1.229 0
1.03588 1.50094 0
1.05966 0.505299 0
1.72271 0.613992 0
0.567158 1.717 0
0.407759 1.0889 0
0.176439 1.56228 0
1.12188 0.335783 0
0.435341 1.78816 0
1.67306 0.18446 0
1.27436 0.17403 0
1.79942 0.251458 0
0.164343 1.27433 0
1.6514 0.744278 0
1.61969 0.876615 0
1.52434 0.978413 0
0.234336 1.1499 0
1.80617 0.185999 0
1.08971 1.46286 0
0.183236 1.81151 0
1.74076 0.55501 0
1.79024 0.313242 0
0.192206 1.21262 0
1.83369 0.439427 0
0.319197 1.85705 0
1.22703 1.42633 0
1.34132 0.13267 0
0.107286 1.35419 0
1.74254 0.137996 0
0.135054 1.74968 0
1.50323 1.13645 0
1.76514 0.673093 0
1.42145 1.13776 0
1.6714 0.893958 0
0.178655 1.6857 0
0.857093 0.710196 0
0.701462 0.863954 0
0.612411 0.93104 0
1.08451 0.450125 0
0.114901 1.44872 0
1.47744 0.116299 0
0.718255 1.73749 0
1.21179 0.169671 0
1.15139 0.165681 0
0.345628 1.09145 0
0.178046 1.15572 0
0.513169 0.993334 0
1.36957 1.293 0
0.922601 0.622493 0
0.961702 1.61853 0
0.909829 1.6521 0
0.783208 0.790797 0
1.08765 0.213998 0
0.817801 1.63018 0
1.00223 1.44964 0
1.14642 0.474151 0
0.346994 1.15633 0
1.66587 0.594511 0
1.53309 0.182125 0
1.26612 0.233596 0
0.167035 1.38907 0
1.00245 0.608356 0
1.32889 1.2798 0
1.13491 0.278572 0
1.45832 1.09045 0
0.937697 0.704095 0
0.864025 0.792945 0
1.23334 1.34305 0
1.14042 1.42113 0
0.781508 0.873396 0
0.691458 0.946543 0
0.596753 1.01605 0
0.498351 1.72527 0
1.71052 0.684409 0
1.73461 0.247163 0
1.63324 0.816652 0
0.756815 1.65621 0
0.633521 1.70013 0
1.60307 0.184171 0
0.93013 1.56686 0
0.18219 1.74734 0
1.39947 0.177747 0
1.33627 0.177617 0
1.73927 0.185887 0
0.288142 1.14971 0
0.149525 1.3247 0
1.10531 0.393067 0
1.77146 0.432804 0
1.78119 0.372656 0
0.175636 1.50376 0
1.20453 0.228425 0
0.372884 1.79187 0
0.311523 1.79795 0
0.248725 1.80576 0
1.38522 1.18319 0
0.982614 1.53463 0
1.75852 0.494429 0
1.54726 0.915872 0
1.14476 0.221776 0
1.49386 1.03754 0
0.176485 1.62317 0
0.207573 1.26711 0
0.247246 1.20193 0
0.5027 1.78795 0
0.471629 1.07943 0
1.44081 0.996961 0
0.237147 1.56128 0
1.59774 0.261743 0
0.431886 1.72909 0
0.368547 1.73305 0
1.71144 0.422579 0
1.37505 1.09748 0
1.30245 1.19422 0
0.240683 1.68163 0
1.11753 0.533983 0
0.551428 1.6535 0
1.68365 0.536733 0
1.64591 0.651174 0
0.545639 1.06368 0
0.264878 1.25536 0
1.25696 0.294036 0
1.16782 0.410416 0
0.876034 1.59906 0
0.226544 1.38295 0
0.952574 1.48299 0
1.39253 0.239429 0
1.18287 0.347567 0
1.19486 0.287219 0
0.414256 1.15816 0
1.72897 0.307046 0
0.172894 1.44621 0
1.05133 1.41228 0
0.737303 0.910605 0
0.902001 0.749375 0
1.32885 0.237165 0
0.218125 1.32317 0
0.286801 1.19164 0
1.46572 0.178791 0
1.18766 1.38037 0
1.03203 0.557828 0
0.644365 0.981031 0
1.56371 0.854243 0
0.244071 1.74303 0
0.971068 0.656926 0
1.46798 0.941107 0
0.823738 0.834101 0
1.26865 1.31679 0
0.695753 1.67862 0
1.67085 0.247637 0
0.986305 0.741509 0
0.629445 1.06243 0
0.820855 0.918754 0
1.415 0.904797 0
1.22267 0.506165 0
1.19871 1.29383 0
1.45698 0.242036 0
1.62837 0.305024 0
0.232479 1.44294 0
1.10025 1.3723 0
1.26202 1.25834 0
0.330438 1.22963 0
1.24643 0.356324 0
1.57739 0.795739 0
1.52253 0.24772 0
0.483701 1.14903 0
0.901347 1.5136 0
0.791766 1.57092 0
0.733842 1.59615 0
0.61362 1.63802 0
0.726163 0.994712 0
0.908788 0.835333 0
1.61147 0.572233 0
0.302484 1.67782 0
0.23551 1.50211 0
1.7214 0.365112 0
0.306466 1.73795 0
1.05416 0.64144 0
1.08587 0.589042 0
0.238544 1.62111 0
1.33916 1.14476 0
0.969926 1.40298 0
1.40895 1.04888 0
0.488451 1.66348 0
1.32041 0.298772 0
0.279259 1.31524 0
1.69921 0.479872 0
1.49011 0.882764 0
1.62692 0.690736 0
1.3278 1.05981 0
0.712715 1.53678 0
1.10652 0.67622 0
0.53587 1.59291 0
1.31105 0.362101 0
0.297606 1.55956 0
1.50847 0.30861 0
1.25435 1.15313 0
0.425924 1.66964 0
1.50913 0.824728 0
1.64559 0.466864 0
0.548287 1.13812 0
1.23502 0.423199 0
0.364163 1.67402 0
1.56188 0.324137 0
0.948951 0.789354 0
0.774229 0.957275 0
0.422663 1.24638 0
1.17402 0.568076 0
0.847906 1.54285 0
1.58429 0.685357 0
1.01284 1.36527 0
0.295851 1.50045 0
1.59325 0.629063 0
0.677052 1.02975 0
[...]
POINT_DATA 748
VECTORS u-v-0 double
0.0380361 1.70336e-11 0
-2.06744e-09 0.0381069 0
0.0142599 1.03529e-10 0
-4.75449e-10 0.014272 0
0.0379884 0.00186556 0
0.0378466 0.00372721 0
0.0376136 0.00557879 0
0.03729 0.00741546 0
0.0368757 0.00923369 0
0.0363729 0.01103 0
0.0357827 0.0128005 0
0.0351082 0.0145427 0
0.0343529 0.016251 0
0.0335167 0.0179199 0
0.0326005 0.019545 0
0.0316054 0.0211217 0
0.0305327 0.022647 0
0.0293857 0.0241176 0
0.0281674 0.0255306 0
0.0268813 0.0268822 0
0.0255301 0.0281692 0
0.024117 0.0293883 0
0.0226456 0.0305359 0
0.0211197 0.0316072 0
0.0195423 0.0325999 0
0.0179192 0.0335166 0
0.0162558 0.0343627 0
0.014556 0.0351352 0
0.0128149 0.0358347 0
0.0110389 0.0364694 0
0.00925449 0.0368995 0
0.00741426 0.0372968 0
0.00559341 0.0376367 0
0.00373591 0.037867 0
0.00186577 0.0380184 0
0.0142546 0.000350036 0
0.0142415 0.000699282 0
0.0142217 0.00104937 0
0.0141936 0.00139869 0
0.014152 0.00174539 0
0.0141031 0.00209128 0
0.0140479 0.00243673 0
0.0139846 0.00278175 0
0.0139134 0.00312454 0
0.0138347 0.0034655 0
0.0137487 0.0038042 0
0.0136484 0.00414071 0
0.0135404 0.00447375 0
0.0134257 0.00480379 0
0.0133058 0.00513272 0
0.0131777 0.00546173 0
0.0130358 0.00578049 0
0.0128879 0.00609652 0
0.0127347 0.00641064 0
0.0125756 0.00672235 0
0.0124061 0.00703039 0
0.0122263 0.00733125 0
0.0120414 0.00762788 0
0.0118533 0.00792171 0
0.0116588 0.00821222 0
0.0114521 0.00849471 0
0.0112382 0.00877179 0
0.0110194 0.0090436 0
0.0107951 0.00931142 0
0.0105636 0.00957346 0
0.0103273 0.00983115 0
0.010085 0.0100872 0
0.0098324 0.0103279 0
0.0095749 0.010564 0
0.00931283 0.0107955 0
0.00904769 0.0110222 0
0.00877425 0.0112435 0
0.00849707 0.0114562 0
0.00821332 0.0116605 0
0.00792338 0.0118572 0
0.0076298 0.0120474 0
0.00733129 0.0122316 0
0.00702922 0.0124083 0
0.00672383 0.0125787 0
0.00641534 0.0127423 0
0.00609892 0.012894 0
0.00577917 0.0130372 0
0.00545753 0.0131735 0
0.00513333 0.0133043 0
0.00480656 0.0134291 0
0.00447683 0.0135466 0
0.00414108 0.0136504 0
0.00380531 0.0137494 0
0.00346707 0.0138388 0
0.00312605 0.0139178 0
0.00278385 0.0139891 0
0.00243943 0.0140529 0
0.002094 0.0141093 0
0.0017476 0.0141589 0
0.00140054 0.0142012 0
0.00105075 0.0142296 0
0.000700607 0.0142494 0
0.000351515 0.0142632 0
-1.65034e-09 0.0349617 0
-1.23324e-09 0.0322559 0
-8.16142e-10 0.0299162 0
-3.99042e-10 0.0278562 0
1.04853e-09 0.0260421 0
-4.2912e-10 0.024427 0
-1.90677e-09 0.0230967 0
-1.15998e-09 0.0218555 0
-6.93368e-10 0.0207698 0
-2.26752e-10 0.0198048 0
1.63785e-09 0.0189431 0
1.30768e-09 0.0181697 0
9.7752e-10 0.0174741 0
8.42623e-10 0.0168412 0
-7.96697e-11 0.0163066 0
-1.00196e-09 0.0157939 0
-7.9257e-10 0.0153603 0
-6.86863e-10 0.0149595 0
-5.81156e-10 0.0145983 0
0.0145837 4.93396e-11 0
0.0149434 -4.84977e-12 0
0.0153438 -4.06412e-11 0
0.0157835 -1.6188e-10 0
0.0162878 -2.83118e-10 0
0.0168313 -4.81165e-12 0
0.0174557 5.95346e-11 0
0.0181444 1.23881e-10 0
0.0189159 1.88227e-10 0
0.0197746 2.52573e-10 0
0.0207402 -2.11839e-10 0
0.0218062 -2.36821e-10 0
0.0230538 -2.61804e-10 0
0.0244118 -2.86787e-10 0
0.0260056 -3.11769e-10 0
0.0277908 -3.36752e-10 0
0.0298373 2.08349e-10 0
0.0321818 1.44577e-10 0
0.0348902 8.08055e-11 0
0.0295925 0.0178417 0
0.0175521 0.0296934 0
0.0255365 0.0232737 0
0.0137885 0.00491731 0
0.00519374 0.0136848 0
0.00925017 0.0113343 0
0.0115913 0.00891075 0
0.0130711 0.00654613 0
0.00712555 0.0127652 0
0.000760306 0.0197089 0
0.0198988 0.000756545 0
0.00360825 0.0141298 0
0.0142421 0.00330728 0
0.033104 0.0100469 0
0.0106305 0.0343865 0
0.000529998 0.0173107 0
0.0168394 0.00036359 0
0.0020697 0.0144775 0
0.000654432 0.0244533 0
0.0244139 0.000692779 0
0.034377 0.00508202 0
0.00694896 0.0337929 0
0.0144801 0.00209358 0
0.0157939 0.000322139 0
0.000320807 0.0157885 0
0.00148638 0.0294965 0
0.0144163 0.00141839 0
0.00140635 0.0144195 0
0.0120538 0.0081596 0
0.0108647 0.00984437 0
0.00847258 0.0118688 0
0.029615 0.00140538 0
0.0204807 0.0278249 0
0.00173664 0.034845 0
0.034848 0.00170647 0
0.0145047 0.031468 0
0.0319083 0.0132678 0
0.0127233 0.00718161 0
0.00985613 0.0108258 0
0.00649383 0.0129442 0
0.0150052 0.000435388 0
0.000431352 0.0150111 0
0.0276963 0.0206591 0
0.0145991 0.000795255 0
0.000791455 0.0146034 0
0.0051849 0.0342559 0
0.0116273 0.0334538 0
0.0231333 0.0256693 0
0.031207 0.0148332 0
0.000351975 0.0168103 0
0.0336 0.00840422 0
0.0180714 0.000649042 0
0.0217781 0.000571404 0
0.000893049 0.0218605 0
0.000695878 0.0187986 0
0.0274477 0.00126035 0
0.00127562 0.0273022 0
0.00288494 0.0143431 0
0.0139499 0.00388379 0
0.00386468 0.0139522 0
0.0045198 0.0137737 0
0.0133769 0.00555721 0
0.010252 0.0102846 0
0.0078544 0.0123565 0
0.0123335 0.00786052 0
0.00597742 0.0133566 0
0.013905 0.00453072 0
0.0132319 0.00618614 0
0.0118327 0.00832957 0
0.0111142 0.00954172 0
0.00865889 0.0116142 0
0.0144333 0.0025071 0
0.000393675 0.0146142 0
0.0146065 0.000395256 0
0.0127144 0.00814478 0
0.00851122 0.0124219 0
0.0114664 0.00980664 0
0.0284391 0.0135534 0
0.0143252 0.00459864 0
0.0136603 0.00628484 0
0.00138908 0.0186293 0
0.0116051 0.0298602 0
0.00344388 0.014583 0
0.0302314 0.00914138 0
0.0149372 0.00210112 0
0.00633128 0.0307336 0
0.00271601 0.0263104 0
0.0269883 0.00247001 0
0.00089808 0.0150316 0
0.0150351 0.000909053 0
0.0190501 0.0287943 0
0.0286812 0.0192745 0
0.00902128 0.0331164 0
0.0218417 0.0267803 0
0.0266502 0.0219929 0
0.0160234 0.030561 0
0.032545 0.0116661 0
0.0346615 0.00339997 0
0.00161089 0.032021 0
0.0320701 0.00155344 0
0.0243669 0.0245007 0
0.030438 0.0163579 0
0.0130282 0.0324278 0
0.00346347 0.0346029 0
0.0340266 0.00674774 0
0.0189483 0.000711579 0
0.000626435 0.0179776 0
0.000821094 0.0207237 0
0.0205873 0.000790058 0
0.0173591 0.000583274 0
0.00104104 0.023333 0
0.0230471 0.000949234 0
0.000508998 0.0162617 0
0.0162877 0.000521333 0
0.0153812 0.000465794 0
0.000464772 0.015394 0
0.00095331 0.0255279 0
0.0257457 0.00113985 0
0.0101095 0.0105307 0
0.0117605 0.00861698 0
0.00819519 0.0121127 0
0.012559 0.00750989 0
0.00629501 0.0131935 0
0.0136532 0.00535755 0
0.0145715 0.00112454 0
0.00112559 0.0145796 0
0.00424291 0.0139882 0
0.0140903 0.00366199 0
0.00248571 0.0144267 0
0.0105885 0.0102032 0
0.00955797 0.0110943 0
0.00903414 0.0114907 0
0.0113608 0.0092347 0
0.0128873 0.00687323 0
0.00675596 0.0128966 0
0.0133385 0.00582373 0
0.00479697 0.0137687 0
0.0140023 0.00419662 0
0.014354 0.00290933 0
0.0144689 0.00169026 0
0.00749995 0.0125739 0
0.00559701 0.0135357 0
0.00167343 0.0144695 0
0.00326794 0.0142341 0
0.00529099 0.0141447 0
0.00206642 0.0149189 0
0.00174143 0.0217913 0
0.0105489 0.0107726 0
0.00107617 0.0168266 0
0.014781 0.00304818 0
0.0179443 0.00131475 0
0.00946701 0.0117199 0
0.0129904 0.00728388 0
0.00621734 0.0137283 0
0.0315088 0.00461522 0
0.0077782 0.0298557 0
0.0296894 0.0106282 0
0.00320552 0.0316868 0
0.0307202 0.00763789 0
0.00669913 0.0133731 0
0.0149071 0.00148619 0
0.0129339 0.0287506 0
0.015834 0.0270383 0
0.0186177 0.0254226 0
0.0210551 0.023463 0
0.0232476 0.0212756 0
0.025226 0.0188929 0
0.0189352 0.00145405 0
0.0216118 0.00167642 0
0.00146613 0.0148983 0
0.0156952 0.000972563 0
0.0081116 0.0127126 0
0.0137283 0.00582557 0
0.0143963 0.00402854 0
0.00300888 0.0147395 0
0.00125511 0.0177596 0
0.000953218 0.0156728 0
0.0148785 0.00258725 0
0.00894516 0.0119924 0
0.0292955 0.00278858 0
0.00467993 0.0143007 0
0.0117449 0.0094616 0
0.0130649 0.00765712 0
0.0101756 0.0111316 0
0.0122603 0.00857462 0
0.00478111 0.0312871 0
0.0245522 0.00203861 0
0.00180461 0.0246302 0
0.016912 0.00111604 0
0.00151477 0.0195728 0
0.0103349 0.0311191 0
0.0290912 0.0121008 0
0.00386047 0.0143561 0
0.0141774 0.00503967 0
0.0134614 0.00671506 0
0.0111802 0.010119 0
0.00296003 0.0290376 0
0.0318299 0.00308844 0
0.0269647 0.0163208 0
0.0277374 0.0149588 0
0.0114979 0.010458 0
0.00884581 0.0128183 0
0.0259938 0.0123952 0
0.0146268 0.00521184 0
0.00492759 0.0149206 0
0.0102628 0.0274207 0
0.00208353 0.0184498 0
0.0277093 0.00829287 0
0.00365015 0.0149927 0
0.016932 0.00186819 0
0.024616 0.00336373 0
0.0154798 0.00216216 0
0.00318923 0.0246807 0
0.014297 0.00644202 0
0.0135552 0.00733442 0
0.0131941 0.00846895 0
0.00576227 0.0282598 0
0.0155583 0.00160105 0
0.00929968 0.0124846 0
0.00156901 0.0155254 0
0.0148078 0.00472035 0
0.0153944 0.00269324 0
0.00420607 0.0264494 0
0.0146418 0.00350759 0
0.00255371 0.0148513 0
0.0098379 0.0114343 0
0.0229684 0.00227233 0
0.00180085 0.0227758 0
0.0162453 0.00128751 0
0.00125088 0.01619 0
0.0120119 0.00908409 0
0.0140382 0.00535267 0
0.0121756 0.00974501 0
0.0132047 0.00706359 0
0.00178404 0.0168095 0
0.0242682 0.0201086 0
0.0198743 0.0244776 0
0.0172836 0.0262849 0
0.0265851 0.0110337 0
0.00163571 0.0206235 0
0.0200391 0.00158203 0
0.00576849 0.0139537 0
0.0266458 0.0037258 0
0.0289561 0.00416349 0
0.00907729 0.0286621 0
0.00441674 0.02868 0
0.0143458 0.0277856 0
0.010954 0.0103434 0
0.0261313 0.0176309 0
0.00770289 0.0129632 0
0.00726319 0.0131859 0
0.0221821 0.0223968 0
0.0311481 0.00612684 0
0.006982 0.013918 0
0.00918897 0.0132928 0
0.0243021 0.0100513 0
0.00790163 0.0263526 0
0.0151549 0.00540826 0
0.0188717 0.00224122 0
0.0243826 0.00449949 0
0.00261105 0.0217 0
0.0246732 0.0149721 0
0.0110804 0.0106685 0
0.0281917 0.0069189 0
0.0124876 0.00933702 0
0.0230797 0.0173291 0
0.0212601 0.0195104 0
0.0105305 0.0114675 0
0.00975431 0.0121558 0
0.0192649 0.0215273 0
0.017036 0.023317 0
0.0145091 0.0246928 0
0.00439406 0.015211 0
0.0143035 0.00572403 0
0.016097 0.00229384 0
0.0139116 0.00695426 0
0.00648297 0.0141874 0
0.0054672 0.0146728 0
0.0178287 0.0020455 0
0.00795686 0.0134047 0
0.00168266 0.0161292 0
0.0214023 0.0027137 0
0.0228756 0.00303873 0
0.0161909 0.00173037 0
0.00690841 0.0275221 0
0.00264326 0.0233575 0
0.0271662 0.0096596 0
0.0151284 0.00369606 0
0.015277 0.00319632 0
0.0022658 0.0193985 0
0.0263519 0.00499444 0
0.00316188 0.0151935 0
0.00265799 0.0153396 0
0.0021263 0.0154392 0
0.0118518 0.010122 0
0.00840515 0.0131278 0
0.0149646 0.00420704 0
0.0135997 0.00804781 0
0.0286046 0.0055397 0
0.0128208 0.00890428 0
0.00191223 0.0175869 0
0.00403516 0.0245808 0
0.00540277 0.0262307 0
0.00413769 0.0147179 0
0.0114611 0.0262674 0
0.0133676 0.00924945 0
0.00277147 0.0182481 0
0.0176269 0.0028864 0
0.00386924 0.0154894 0
0.00334251 0.0157164 0
0.0156802 0.00387111 0
0.0126504 0.010096 0
0.0118745 0.0108868 0
0.00239021 0.0166873 0
0.0238018 0.0113699 0
0.00517536 0.0155194 0
0.0153483 0.00489294 0
0.0149469 0.00591202 0
0.0127419 0.024865 0
0.00516054 0.0244192 0
0.0240439 0.00562336 0
0.0249083 0.008754 0
0.00748409 0.0136613 0
0.00352531 0.0215131 0
0.00873124 0.0135956 0
0.0212084 0.00364214 0
0.0255005 0.00749401 0
0.0259767 0.00624419 0
0.00896975 0.0251245 0
0.0159724 0.00283642 0
0.0024473 0.0204703 0
0.00965794 0.0129749 0
0.0181886 0.0224597 0
0.0221975 0.0184406 0
0.0226851 0.0040465 0
0.00378798 0.0229883 0
0.00629189 0.0260864 0
0.0200522 0.00244619 0
0.0101711 0.0118223 0
0.025369 0.0137113 0
0.0158209 0.0240826 0
0.0140076 0.00765089 0
0.00224551 0.0160304 0
0.0239124 0.016176 0
0.0137597 0.00882075 0
0.0202906 0.0205448 0
0.0107706 0.0111792 0
0.00598577 0.0144426 0
0.0167767 0.00248492 0
0.0212142 0.0159488 0
0.0135013 0.0227987 0
0.0177317 0.0198426 0
0.0143847 0.00919802 0
0.0219407 0.00908068 0
0.0109689 0.0118425 0
0.0199215 0.00330709 0
0.0170647 0.00319784 0
0.00326217 0.020249 0
0.0101283 0.0126332 0
0.0112977 0.0112647 0
0.00654622 0.0243749 0
0.0235858 0.00674074 0
0.0143841 0.00725531 0
0.0187773 0.00305541 0
0.0101205 0.0240651 0
0.00827082 0.0138899 0
0.00728669 0.014458 0
0.00677308 0.0147336 0
0.00571587 0.015259 0
0.0156968 0.021499 0
0.0195276 0.0179489 0
0.0157555 0.0055925 0
0.0029791 0.0165201 0
0.00300609 0.0191791 0
0.0158323 0.0033583 0
0.00280312 0.0158933 0
0.0226708 0.0137947 0
0.0232857 0.0126302 0
0.00256407 0.017423 0
0.0122845 0.0105007 0
0.00953792 0.013801 0
0.0130045 0.00968046 0
0.00463728 0.0157953 0
0.0223744 0.00505867 0
0.00481575 0.0226917 0
0.0155168 0.00438111 0
0.0141727 0.0083956 0
0.0148222 0.00629211 0
0.0131676 0.01051 0
0.00711338 0.0153399 0
0.0209195 0.0127857 0
0.00544204 0.0161781 0
0.0219572 0.00605884 0
0.00343448 0.0180019 0
0.018685 0.00382177 0
0.0123591 0.0113634 0
0.0040979 0.0160658 0
0.014574 0.00796423 0
0.0160823 0.0045628 0
0.0110755 0.0230291 0
0.0229644 0.00786286 0
0.0035481 0.0163102 0
0.0178283 0.00370305 0
0.0203933 0.0169625 0
0.0167533 0.0207091 0
0.00769552 0.0226924 0
0.0218729 0.0105922 0
0.00779139 0.0141773 0
0.0151812 0.00656399 0
0.010033 0.013522 0
0.00372355 0.0188938 0
0.0155192 0.00612568 0
0.0146087 0.0222186 0
0.0162669 0.00406258 0
0.0105713 0.0122585 0
0.00625183 0.0150023 0
0.0219805 0.0148987 0
0.0139676 0.00964888 0
0.00909394 0.0140837 0
0.0186535 0.0189203 0
0.00443059 0.0211886 0
0.0209202 0.00457025 0
0.00318813 0.0172177 0
0.0159176 0.00505566 0
0.0148193 0.00875137 0
0.0165871 0.00302152 0
0.0179907 0.016551 0
0.0126112 0.0213008 0
0.0097946 0.0142115 0
0.015248 0.00827995 0
0.0157317 0.0070612 0
0.0204634 0.00921018 0
0.0114864 0.0123007 0
0.0165108 0.00471805 0
0.0205501 0.00548584 0
0.0145523 0.0199346 0
0.00656765 0.015633 0
0.0105519 0.0131771 0
0.00530379 0.0207677 0
0.0213797 0.00702062 0
0.00405412 0.0177068 0
0.0150958 0.0096185 0
0.0119155 0.0118208 0
0.0179089 0.00438703 0
0.00654573 0.0217413 0
0.0195992 0.0147353 0
0.0164312 0.0183978 0
0.020298 0.0137854 0
0.0214566 0.0117332 0
0.00600773 0.0159153 0
0.00909838 0.0221802 0
0.0164362 0.00576726 0
0.0170824 0.00366178 0
0.00764865 0.0150417 0
0.0127759 0.0109332 0
0.00489094 0.0164427 0
0.0135607 0.0100903 0
0.0149111 0.0075228 0
0.00405529 0.0199424 0
0.00864676 0.0144075 0
0.00434324 0.0167093 0
0.0196922 0.00414277 0
0.0164266 0.0035362 0
0.0147655 0.00689423 0
0.00378068 0.0169738 0
0.0137042 0.0109783 0
0.00752269 0.0160086 0
0.0120427 0.0128592 0
0.0193898 0.0119318 0
0.0201453 0.00634835 0
0.00572588 0.0169386 0
0.00481396 0.0195274 0
0.0100641 0.0214681 0
0.0191595 0.00499697 0
0.00461468 0.0173964 0
0.0155839 0.00774579 0
0.0135576 0.0206408 0
0.0182151 0.0136822 0
0.0155366 0.0191993 0
0.0188161 0.0156466 0
0.0129295 0.0118606 0
0.0202542 0.010002 0
0.00841238 0.0206008 0
0.00747491 0.0206963 0
0.0172292 0.0175058 0
0.0104075 0.0142806 0
0.0161924 0.00640681 0
0.0146416 0.0101293 0
0.00909861 0.0149579 0
0.00952699 0.0145493 0
0.00695131 0.0163463 0
0.0110382 0.0127604 0
0.0165185 0.00514965 0
0.020535 0.00781651 0
0.00438726 0.0185358 0
0.00816358 0.0147304 0
0.0155263 0.00912723 0
0.0185552 0.00436198 0
0.00514746 0.0171511 0
0.0118436 0.0220716 0
0.00582141 0.0222396 0
0.0150985 0.00717409 0
0.0169794 0.00439376 0
0.0164548 0.0151637 0
0.0117073 0.0199757 0
0.0135484 0.018552 0
0.0101066 0.0150373 0
0.0159199 0.0100907 0
0.0193361 0.00849469 0
0.00800983 0.0167333 0
0.0164981 0.00729715 0
0.0172502 0.00588296 0
0.00787943 0.0194251 0
0.00547442 0.0189464 0
0.0115532 0.013334 0
0.00860359 0.0153282 0
0.0191125 0.00598359 0
0.0172104 0.0051488 0
0.0195659 0.00702959 0
0.0175213 0.0144832 0
0.00629538 0.0202504 0
0.0198747 0.0109951 0
0.0110368 0.0137907 0
0.018835 0.0128313 0
0.0124993 0.0123625 0
0.015362 0.0171911 0
0.00926223 0.0201105 0
0.00634858 0.0166768 0
0.0133129 0.011387 0
0.00910861 0.0159791 0
0.0141587 0.0105887 0
0.0159973 0.00865672 0
0.00807591 0.0156719 0
0.0180465 0.00511837 0
0.00496453 0.0181113 0
0.0126797 0.0231206 0
0.00600338 0.0180293 0
0.0135684 0.0123899 0
0.0126315 0.0134944 0
0.0170247 0.012804 0
0.0160087 0.0140319 0
0.0180545 0.0112169 0
0.0141045 0.0113792 0
0.00857456 0.0189718 0
0.00678295 0.0175596 0
0.0187061 0.00743408 0
0.0189918 0.0065522 0
0.00856585 0.0163343 0
0.00677141 0.0190902 0
0.0125893 0.0192591 0
0.0171512 0.00680411 0
0.0160038 0.0163846 0
0.0108985 0.0207225 0
0.0120902 0.0139765 0
0.0145188 0.0178816 0
0.0188852 0.0094994 0
0.00735317 0.0197325 0
0.015452 0.0107044 0
0.00965567 0.0155817 0
0.0074162 0.01714 0
0.0111191 0.0148899 0
0.0163163 0.00949711 0
0.0181499 0.00589714 0
0.0165985 0.00800966 0
0.00533571 0.0177452 0
0.00951957 0.0165341 0
0.0108123 0.0155273 0
0.0151618 0.0157318 0
0.0125942 0.0172057 0
0.0165414 0.00902065 0
0.0108029 0.0187492 0
0.00859019 0.0175222 0
0.0132669 0.0142484 0
0.0181343 0.00836605 0
0.0145588 0.0161431 0
0.00732549 0.0184769 0
0.0184868 0.0103704 0
0.0100457 0.0194814 0
0.016476 0.0135392 0
0.0175564 0.0120256 0
0.0115544 0.0144105 0
0.0148284 0.0113726 0
0.0131293 0.0129616 0
0.0139131 0.0118202 0
0.0177114 0.00771244 0
0.0182839 0.00666598 0
0.0143252 0.0129822 0
0.0126208 0.0147092 0
0.0146592 0.012268 0
0.0115736 0.0152618 0
0.011618 0.0180197 0
0.0164253 0.0113354 0
0.0137318 0.0166844 0
0.00916384 0.0169938 0
0.0138582 0.013667 0
0.00796219 0.0180074 0
0.00927208 0.0184191 0
0.0105136 0.0166334 0
0.0172904 0.0098868 0
0.0159476 0.0120743 0
0.0169002 0.0106237 0
0.0152336 0.0136145 0
0.0131356 0.0155998 0
0.0174757 0.00893584 0
0.0120064 0.0150562 0
0.011568 0.015844 0
0.00992291 0.0177486 0
0.0155481 0.0128247 0
0.0148598 0.0146613 0
0.012339 0.0158556 0
0.0115608 0.0165257 0
0.0139179 0.0151566 0
SCALARS sigma double
LOOKUP_TABLE default
16.3104
15.9374
2.19823
2.20892
16.3084
16.2932
16.2706
16.2509
16.2338
16.2255
16.2227
16.2206
16.2198
16.2163
16.2148
16.2157
16.2164
16.2184
16.219
16.2202
16.2199
16.2194
16.2122
16.196
16.1894
16.2134
16.2752
16.3888
16.5995
16.8383
16.3061
16.0534
16.2264
16.2876
16.3054
2.20296
2.19714
2.1911
2.17568
2.17871
2.20283
2.21095
2.20918
2.19812
2.17454
2.1734
2.19191
2.19783
2.21063
2.20727
2.16779
2.179
2.19624
2.20137
2.19838
2.20331
2.20437
2.20117
2.17851
2.17174
2.18039
2.19412
2.20465
2.20512
2.2137
2.20876
2.17901
2.18744
2.20412
2.20716
2.19528
2.19455
2.18055
2.18401
2.20031
2.21
2.20925
2.1986
2.1748
2.1735
2.19138
2.2018
2.21102
2.20258
2.17939
2.18368
2.19356
2.17234
2.18704
2.19583
2.20525
2.20864
2.20099
2.17835
2.17615
2.1929
2.19987
2.21223
14.6358
12.8345
11.3766
10.396
9.01842
7.83056
6.98586
6.37051
5.67401
5.11795
4.53144
4.23039
3.78681
3.39299
3.21936
2.96386
2.70486
2.52432
3.15499
2.31674
2.50004
2.69719
2.94266
3.19712
3.48643
3.83538
4.19227
4.60795
5.06471
5.58066
6.24879
6.96588
7.80271
8.82339
9.91487
11.2552
12.868
14.8083
14.5451
14.4534
14.5486
2.33488
2.35626
2.34342
2.341
2.33705
2.34269
5.0468
5.11951
2.2899
2.34237
14.5723
16.0107
3.76746
3.48631
2.34516
7.87621
7.78587
14.6902
14.4339
2.35139
2.93854
2.92224
11.0094
2.2137
2.21474
2.30074
2.34269
2.30025
11.1309
14.5418
14.7607
14.7897
14.5714
14.546
2.30832
2.34938
2.21346
2.53286
2.53354
14.5475
2.34165
2.34395
14.5956
15.1424
14.5507
14.5424
3.48675
14.6014
4.15664
6.20343
6.26181
4.54339
9.73147
9.6868
2.33835
2.21481
2.21613
2.20998
2.22434
2.2355
2.34918
2.35894
2.34689
2.34062
2.33071
2.20566
2.34822
2.21446
2.3532
2.33972
2.33339
2.59023
2.56731
2.57805
12.3845
2.56035
2.5759
4.47443
12.7235
2.52557
12.4436
2.57891
12.4228
9.16903
9.4325
2.58284
2.58624
14.5056
14.5479
14.2706
14.5514
14.5488
14.464
14.5565
14.7437
12.7363
12.8148
14.5506
14.5433
14.7949
14.6861
14.6435
4.62667
4.1123
5.60895
5.62655
3.78828
7.07233
6.96126
3.1855
3.20193
2.73176
2.7253
8.67953
8.66059
2.32993
2.29376
2.34549
2.34576
2.30261
2.34373
2.30363
2.30216
2.3298
2.29454
2.34558
2.3633
2.34762
2.30091
2.3478
2.31578
2.29612
2.29631
2.31353
2.30267
2.3505
2.3039
2.34824
2.35448
2.30137
2.32099
2.58982
2.56599
6.21315
2.55673
3.52105
2.57927
4.08776
2.5763
2.44246
2.57543
12.6358
12.0526
12.4078
12.6101
12.4979
2.52647
2.54494
12.3313
12.2478
12.4163
12.4151
12.4072
12.4072
4.64337
6.13305
2.53757
2.88666
2.57364
2.48744
2.52094
2.55287
3.9801
2.87105
2.58574
2.52939
10.9911
2.56638
2.5776
2.62099
2.5642
2.53191
12.5125
7.99852
7.99872
3.57659
5.00008
13.1854
12.389
2.47475
2.55724
2.56766
2.56506
10.7472
12.727
12.4043
12.3938
2.83372
2.81941
10.5464
2.80941
2.88127
10.8547
4.4098
10.6421
2.75587
3.62287
8.09997
2.84848
8.0467
2.86601
2.75696
2.86973
10.7229
2.83365
2.81113
2.81676
2.80327
2.8551
9.32154
2.56388
2.56679
2.57805
7.02085
6.70074
3.21655
3.18175
2.57234
2.5275
2.84283
2.52373
3.53382
12.4076
12.422
12.3833
10.5379
5.59333
5.28925
2.58585