# vtk DataFile Version 2.0
wasora vtk output
ASCII
DATASET UNSTRUCTURED_GRID
POINTS 748 double
1 0 0
0 1 0
2 0 0
0 2 0
0.998795 0.0490677 0
0.995185 0.0980171 0
0.989177 0.14673 0
0.980785 0.19509 0
0.970031 0.24298 0
0.95694 0.290285 0
0.941544 0.33689 0
0.92388 0.382683 0
0.903989 0.427555 0
0.881921 0.471397 0
0.857729 0.514103 0
0.83147 0.55557 0
0.803208 0.595699 0
0.77301 0.634393 0
0.740951 0.671559 0
0.707107 0.707107 0
0.671559 0.740951 0
0.634393 0.77301 0
0.595699 0.803208 0
0.55557 0.83147 0
0.514103 0.857729 0
0.471397 0.881921 0
0.427555 0.903989 0
0.382683 0.92388 0
0.33689 0.941544 0
0.290285 0.95694 0
0.24298 0.970031 0
0.19509 0.980785 0
0.14673 0.989177 0
0.0980171 0.995185 0
0.0490677 0.998795 0
1.9994 0.0490825 0
1.99759 0.0981353 0
1.99458 0.147129 0
1.99037 0.196034 0
1.98496 0.244821 0
1.97835 0.293461 0
1.97056 0.341924 0
1.96157 0.390181 0
1.9514 0.438202 0
1.94006 0.48596 0
1.92755 0.533426 0
1.91388 0.580569 0
1.89906 0.627363 0
1.88309 0.67378 0
1.86599 0.71979 0
1.84776 0.765367 0
1.82842 0.810483 0
1.80798 0.85511 0
1.78645 0.899223 0
1.76384 0.942793 0
1.74017 0.985796 0
1.71546 1.02821 0
1.68971 1.07 0
1.66294 1.11114 0
1.63517 1.15162 0
1.60642 1.1914 0
1.57669 1.23046 0
1.54602 1.26879 0
1.51442 1.30635 0
1.4819 1.34312 0
1.44849 1.37908 0
1.41421 1.41421 0
1.37908 1.44849 0
1.34312 1.4819 0
1.30635 1.51442 0
1.26879 1.54602 0
1.23046 1.57669 0
1.1914 1.60642 0
1.15162 1.63517 0
1.11114 1.66294 0
1.07 1.68971 0
1.02821 1.71546 0
0.985796 1.74017 0
0.942793 1.76384 0
0.899223 1.78645 0
0.85511 1.80798 0
0.810483 1.82842 0
0.765367 1.84776 0
0.71979 1.86599 0
0.67378 1.88309 0
0.627363 1.89906 0
0.580569 1.91388 0
0.533426 1.92755 0
0.48596 1.94006 0
0.438202 1.9514 0
0.390181 1.96157 0
0.341924 1.97056 0
0.293461 1.97835 0
0.244821 1.98496 0
0.196034 1.99037 0
0.147129 1.99458 0
0.0981353 1.99759 0
0.0490825 1.9994 0
0 1.05 0
0 1.1 0
0 1.15 0
0 1.2 0
0 1.25 0
0 1.3 0
0 1.35 0
0 1.4 0
0 1.45 0
0 1.5 0
0 1.55 0
0 1.6 0
0 1.65 0
0 1.7 0
0 1.75 0
0 1.8 0
0 1.85 0
0 1.9 0
0 1.95 0
1.95 0 0
1.9 0 0
1.85 0 0
1.8 0 0
1.75 0 0
1.7 0 0
1.65 0 0
1.6 0 0
1.55 0 0
1.5 0 0
1.45 0 0
1.4 0 0
1.35 0 0
1.3 0 0
1.25 0 0
1.2 0 0
1.15 0 0
1.1 0 0
1.05 0 0
0.903868 0.544898 0
0.537709 0.90945 0
0.780156 0.711005 0
1.82927 0.65225 0
0.689022 1.81589 0
1.22837 1.50519 0
1.54121 1.18455 0
1.73864 0.870519 0
0.947885 1.69825 0
0.0579469 1.50267 0
1.49143 0.0570468 0
0.482756 1.89 0
1.89404 0.439858 0
1.0092 0.306348 0
0.304832 0.985862 0
0.0505838 1.6609 0
1.69886 0.0365308 0
0.275008 1.92501 0
0.0344551 1.29866 0
1.29941 0.036688 0
1.0409 0.153924 0
0.212711 1.03589 0
1.92273 0.277949 0
1.79847 0.0367598 0
0.0367662 1.80017 0
0.0581713 1.15634 0
1.95529 0.192423 0
0.190779 1.95631 0
1.6175 1.09496 0
1.43657 1.30144 0
1.13319 1.58709 0
1.15295 0.0548006 0
0.625817 0.850096 0
0.0522216 1.04922 0
1.04871 0.0513559 0
0.441275 0.956918 0
0.974336 0.40514 0
1.69478 0.956567 0
1.30695 1.43547 0
0.881562 1.75715 0
1.89038 0.0550787 0
0.0545827 1.89118 0
0.846078 0.63107 0
1.94126 0.10572 0
0.105089 1.94196 0
0.157629 1.04267 0
0.341866 0.983387 0
0.706624 0.784057 0
0.953134 0.452994 0
0.0354555 1.70231 0
1.02256 0.255831 0
1.60324 0.0574344 0
1.40077 0.0367874 0
0.0571238 1.39726 0
0.0575793 1.55627 0
1.20715 0.0552272 0
0.0564389 1.21217 0
0.383167 1.9056 0
1.89395 0.527162 0
0.524951 1.8952 0
0.612322 1.8662 0
1.81454 0.753747 0
1.38327 1.38778 0
1.04165 1.63873 0
1.63854 1.04416 0
0.793485 1.77336 0
1.84826 0.602144 0
1.76303 0.824051 0
1.60841 1.13193 0
1.47203 1.26352 0
1.17437 1.57541 0
1.91162 0.331994 0
0.0523156 1.94548 0
1.94507 0.0526309 0
1.58287 1.014 0
1.06595 1.55544 0
1.4294 1.22232 0
1.0049 0.478887 0
1.79679 0.576574 0
1.71466 0.788684 0
0.116344 1.5608 0
0.399675 1.02776 0
0.435651 1.84447 0
1.06405 0.321807 0
1.86351 0.261909 0
0.225058 1.09371 0
0.126547 1.23058 0
1.2131 0.111476 0
0.112467 1.883 0
1.88106 0.11378 0
0.582785 0.880663 0
0.876019 0.588665 0
0.278302 1.02271 0
0.667111 0.817893 0
0.8141 0.671808 0
0.49055 0.935342 0
0.993088 0.356021 0
1.04594 0.102629 0
0.0554582 1.10161 0
1.10013 0.0533219 0
0.744309 0.748373 0
0.929626 0.499539 0
0.391204 0.973178 0
0.104695 1.04703 0
1.03309 0.204925 0
1.54589 0.0580392 0
0.0558067 1.61102 0
0.0575299 1.4498 0
1.45564 0.0558032 0
1.65575 0.0557999 0
0.0600235 1.33718 0
1.34765 0.0555971 0
0.0547688 1.75107 0
1.74762 0.0559601 0
1.84409 0.0557013 0
0.0556999 1.8441 0
0.0465865 1.26362 0
1.25577 0.0558399 0
1.34886 1.40475 0
1.5731 1.15202 0
1.08937 1.6102 0
1.66698 0.996537 0
0.837723 1.75528 0
1.80409 0.708068 0
1.93915 0.149899 0
0.149888 1.93916 0
0.564772 1.86143 0
1.89077 0.491567 0
0.329643 1.9143 0
1.39112 1.34071 0
1.26683 1.4705 0
1.20186 1.52916 0
1.50633 1.22416 0
1.7176 0.915867 0
0.906353 1.73068 0
1.79083 0.781729 0
0.641322 1.84214 0
1.86313 0.558065 0
1.90217 0.385565 0
1.9387 0.226226 0
0.99469 1.66777 0
0.741531 1.79364 0
0.224082 1.94028 0
0.4357 1.89816 0
0.658567 1.761 0
0.25842 1.86776 0
0.111704 1.39484 0
1.31698 1.34478 0
0.108292 1.69519 0
1.84202 0.379894 0
1.60581 0.117919 0
1.18386 1.4659 0
1.66281 0.93223 0
0.777331 1.71607 0
1.09483 0.160424 0
0.284472 1.09111 0
1.04743 0.375 0
0.111444 1.10134 0
1.07746 0.267939 0
0.850068 1.69717 0
1.88514 0.187819 0
0.456828 1.01482 0
0.564759 0.963717 0
0.657784 0.898143 0
0.743317 0.828351 0
0.821183 0.75153 0
0.890928 0.667268 0
1.54034 0.118323 0
1.40147 0.108731 0
0.185552 1.88791 0
1.80276 0.111524 0
1.01269 1.58702 0
1.75252 0.743447 0
1.82884 0.511795 0
0.377494 1.84942 0
0.114667 1.62054 0
0.109831 1.80674 0
1.85166 0.321943 0
1.1345 1.521 0
1.15399 0.109933 0
0.586703 1.79307 0
1.46532 1.18024 0
1.6165 0.947211 0
1.26976 1.38913 0
1.55447 1.08694 0
0.167816 1.0983 0
1.28799 0.107216 0
0.0944076 1.28758 0
1.6863 0.11155 0
0.1164 1.50409 0
0.343282 1.03263 0
1.02768 0.42748 0
0.496168 1.84514 0
1.77735 0.631702 0
1.68836 0.842138 0
1.39507 1.26265 0
0.118383 1.15937 0
1.09872 0.106673 0
0.952176 0.576321 0
0.97967 0.528318 0
1.35112 1.229 0
1.03588 1.50094 0
1.05966 0.505299 0
1.72271 0.613992 0
0.567158 1.717 0
0.407759 1.0889 0
0.176439 1.56228 0
1.12188 0.335783 0
0.435341 1.78816 0
1.67306 0.18446 0
1.27436 0.17403 0
1.79942 0.251458 0
0.164343 1.27433 0
1.6514 0.744278 0
1.61969 0.876615 0
1.52434 0.978413 0
0.234336 1.1499 0
1.80617 0.185999 0
1.08971 1.46286 0
0.183236 1.81151 0
1.74076 0.55501 0
1.79024 0.313242 0
0.192206 1.21262 0
1.83369 0.439427 0
0.319197 1.85705 0
1.22703 1.42633 0
1.34132 0.13267 0
0.107286 1.35419 0
1.74254 0.137996 0
0.135054 1.74968 0
1.50323 1.13645 0
1.76514 0.673093 0
1.42145 1.13776 0
1.6714 0.893958 0
0.178655 1.6857 0
0.857093 0.710196 0
0.701462 0.863954 0
0.612411 0.93104 0
1.08451 0.450125 0
0.114901 1.44872 0
1.47744 0.116299 0
0.718255 1.73749 0
1.21179 0.169671 0
1.15139 0.165681 0
0.345628 1.09145 0
0.178046 1.15572 0
0.513169 0.993334 0
1.36957 1.293 0
0.922601 0.622493 0
0.961702 1.61853 0
0.909829 1.6521 0
0.783208 0.790797 0
1.08765 0.213998 0
0.817801 1.63018 0
1.00223 1.44964 0
1.14642 0.474151 0
0.346994 1.15633 0
1.66587 0.594511 0
1.53309 0.182125 0
1.26612 0.233596 0
0.167035 1.38907 0
1.00245 0.608356 0
1.32889 1.2798 0
1.13491 0.278572 0
1.45832 1.09045 0
0.937697 0.704095 0
0.864025 0.792945 0
1.23334 1.34305 0
1.14042 1.42113 0
0.781508 0.873396 0
0.691458 0.946543 0
0.596753 1.01605 0
0.498351 1.72527 0
1.71052 0.684409 0
1.73461 0.247163 0
1.63324 0.816652 0
0.756815 1.65621 0
0.633521 1.70013 0
1.60307 0.184171 0
0.93013 1.56686 0
0.18219 1.74734 0
1.39947 0.177747 0
1.33627 0.177617 0
1.73927 0.185887 0
0.288142 1.14971 0
0.149525 1.3247 0
1.10531 0.393067 0
1.77146 0.432804 0
1.78119 0.372656 0
0.175636 1.50376 0
1.20453 0.228425 0
0.372884 1.79187 0
0.311523 1.79795 0
0.248725 1.80576 0
1.38522 1.18319 0
0.982614 1.53463 0
1.75852 0.494429 0
1.54726 0.915872 0
1.14476 0.221776 0
1.49386 1.03754 0
0.176485 1.62317 0
0.207573 1.26711 0
0.247246 1.20193 0
0.5027 1.78795 0
0.471629 1.07943 0
1.44081 0.996961 0
0.237147 1.56128 0
1.59774 0.261743 0
0.431886 1.72909 0
0.368547 1.73305 0
1.71144 0.422579 0
1.37505 1.09748 0
1.30245 1.19422 0
0.240683 1.68163 0
1.11753 0.533983 0
0.551428 1.6535 0
1.68365 0.536733 0
1.64591 0.651174 0
0.545639 1.06368 0
0.264878 1.25536 0
1.25696 0.294036 0
1.16782 0.410416 0
0.876034 1.59906 0
0.226544 1.38295 0
0.952574 1.48299 0
1.39253 0.239429 0
1.18287 0.347567 0
1.19486 0.287219 0
0.414256 1.15816 0
1.72897 0.307046 0
0.172894 1.44621 0
1.05133 1.41228 0
0.737303 0.910605 0
0.902001 0.749375 0
1.32885 0.237165 0
0.218125 1.32317 0
0.286801 1.19164 0
1.46572 0.178791 0
1.18766 1.38037 0
1.03203 0.557828 0
0.644365 0.981031 0
1.56371 0.854243 0
0.244071 1.74303 0
0.971068 0.656926 0
1.46798 0.941107 0
0.823738 0.834101 0
1.26865 1.31679 0
0.695753 1.67862 0
1.67085 0.247637 0
0.986305 0.741509 0
0.629445 1.06243 0
0.820855 0.918754 0
1.415 0.904797 0
1.22267 0.506165 0
1.19871 1.29383 0
1.45698 0.242036 0
1.62837 0.305024 0
0.232479 1.44294 0
1.10025 1.3723 0
1.26202 1.25834 0
0.330438 1.22963 0
1.24643 0.356324 0
1.57739 0.795739 0
1.52253 0.24772 0
0.483701 1.14903 0
0.901347 1.5136 0
0.791766 1.57092 0
0.733842 1.59615 0
0.61362 1.63802 0
0.726163 0.994712 0
0.908788 0.835333 0
1.61147 0.572233 0
0.302484 1.67782 0
0.23551 1.50211 0
1.7214 0.365112 0
0.306466 1.73795 0
1.05416 0.64144 0
1.08587 0.589042 0
0.238544 1.62111 0
1.33916 1.14476 0
0.969926 1.40298 0
1.40895 1.04888 0
0.488451 1.66348 0
1.32041 0.298772 0
0.279259 1.31524 0
1.69921 0.479872 0
1.49011 0.882764 0
1.62692 0.690736 0
1.3278 1.05981 0
0.712715 1.53678 0
1.10652 0.67622 0
0.53587 1.59291 0
1.31105 0.362101 0
0.297606 1.55956 0
1.50847 0.30861 0
1.25435 1.15313 0
0.425924 1.66964 0
1.50913 0.824728 0
1.64559 0.466864 0
0.548287 1.13812 0
1.23502 0.423199 0
0.364163 1.67402 0
1.56188 0.324137 0
0.948951 0.789354 0
0.774229 0.957275 0
0.422663 1.24638 0
1.17402 0.568076 0
0.847906 1.54285 0
1.58429 0.685357 0
1.01284 1.36527 0
0.295851 1.50045 0
1.59325 0.629063 0
0.677052 1.02975 0
[...]
POINT_DATA 748
VECTORS u-v-w double
-0.0130164 -9.26418e-11 0
-2.44963e-08 -0.436117 0
-0.00168387 -1.53308e-09 0
8.54015e-09 -0.115792 0
-0.0130081 -0.00441002 0
-0.0129823 -0.00883545 0
-0.0129382 -0.0132918 0
-0.0128735 -0.0177943 0
-0.0127851 -0.0223589 0
-0.0126705 -0.0270011 0
-0.012525 -0.0317352 0
-0.0123437 -0.0365773 0
-0.0121217 -0.0415402 0
-0.0118503 -0.046638 0
-0.011521 -0.0518856 0
-0.0111246 -0.0572977 0
-0.0106506 -0.0628913 0
-0.0100888 -0.0686844 0
-0.00942807 -0.0746971 0
-0.00865667 -0.0809518 0
-0.0077613 -0.0874755 0
-0.00672785 -0.0943008 0
-0.00553999 -0.101468 0
-0.00417766 -0.109033 0
-0.00261703 -0.117073 0
-0.000832675 -0.125698 0
0.00121099 -0.135054 0
0.00356126 -0.145344 0
0.00627205 -0.156926 0
0.00922811 -0.170093 0
0.0119814 -0.185141 0
0.0157376 -0.203345 0
0.0202276 -0.227402 0
0.0248024 -0.261547 0
0.0264688 -0.317868 0
-0.00172225 -0.000341513 0
-0.00183197 -0.000689541 0
-0.00200911 -0.00105229 0
-0.00224374 -0.00142999 0
-0.00255442 -0.00182537 0
-0.0029245 -0.00223675 0
-0.00336101 -0.00266558 0
-0.0038676 -0.00312392 0
-0.00444247 -0.00361848 0
-0.00507837 -0.00415799 0
-0.00576685 -0.00474064 0
-0.00652093 -0.0053755 0
-0.00732367 -0.00605252 0
-0.00818134 -0.0067801 0
-0.0090998 -0.00756621 0
-0.0100576 -0.00841905 0
-0.0110707 -0.009346 0
-0.0121196 -0.0103366 0
-0.0132091 -0.0113953 0
-0.0143357 -0.0125316 0
-0.0154942 -0.0137515 0
-0.016683 -0.0150564 0
-0.0178978 -0.0164484 0
-0.0191324 -0.0179309 0
-0.0203761 -0.0195102 0
-0.0216252 -0.0211972 0
-0.0228699 -0.0229731 0
-0.0241142 -0.0248426 0
-0.0253527 -0.0268144 0
-0.0265727 -0.0288917 0
-0.0277713 -0.0310785 0
-0.0289379 -0.0333651 0
-0.0300551 -0.0357752 0
-0.031114 -0.0382782 0
-0.0321234 -0.0408731 0
-0.0330785 -0.0435751 0
-0.033946 -0.046382 0
-0.0347352 -0.0492809 0
-0.0354044 -0.052283 0
-0.0359608 -0.0553551 0
-0.0364046 -0.0584965 0
-0.0367243 -0.0617025 0
-0.0369136 -0.0649666 0
-0.0369683 -0.0682872 0
-0.0368605 -0.071659 0
-0.0365309 -0.0750408 0
-0.0360367 -0.078411 0
-0.0353577 -0.0817645 0
-0.0344997 -0.0850788 0
-0.0334719 -0.0883559 0
-0.0322384 -0.0915867 0
-0.0307402 -0.0946739 0
-0.0290984 -0.0976649 0
-0.0272078 -0.100492 0
-0.0251286 -0.103146 0
-0.0228636 -0.105597 0
-0.0204266 -0.107823 0
-0.0178391 -0.109806 0
-0.0151284 -0.111546 0
-0.0122848 -0.113034 0
-0.00930854 -0.114153 0
-0.00626993 -0.114994 0
-0.00317005 -0.115538 0
-1.72758e-08 -0.297923 0
-1.00552e-08 -0.242047 0
-2.83466e-09 -0.209748 0
4.3859e-09 -0.187449 0
1.04069e-08 -0.171058 0
9.33934e-10 -0.158654 0
-8.53899e-09 -0.150074 0
-1.53927e-09 -0.142516 0
2.30106e-09 -0.136512 0
6.14138e-09 -0.131676 0
5.45711e-09 -0.12776 0
3.67275e-09 -0.12458 0
1.88839e-09 -0.122015 0
8.47606e-09 -0.119961 0
-2.17485e-09 -0.118563 0
-1.28258e-08 -0.117372 0
-5.62026e-09 -0.116661 0
-9.00123e-10 -0.116161 0
3.82002e-09 -0.115887 0
-0.00169037 -6.12727e-10 0
-0.00171251 3.0763e-10 0
-0.00175042 -6.12306e-11 0
-0.00180102 -6.15876e-10 0
-0.00188099 -1.17052e-09 0
-0.00197884 1.43499e-10 0
-0.00211923 1.42041e-10 0
-0.00229188 1.40583e-10 0
-0.00251616 1.39125e-10 0
-0.00280308 1.37667e-10 0
-0.00315607 7.26069e-10 0
-0.00357149 7.70136e-10 0
-0.0041211 8.14203e-10 0
-0.00474686 8.5827e-10 0
-0.00555583 9.02337e-10 0
-0.00651267 9.46404e-10 0
-0.00768404 9.42624e-10 0
-0.00911492 5.97536e-10 0
-0.0108671 2.52447e-10 0
-0.0104914 -0.0484836 0
-0.00572835 -0.110523 0
-0.00959129 -0.0700218 0
-0.00772883 -0.00794328 0
-0.0314676 -0.086983 0
-0.0308119 -0.045861 0
-0.0210786 -0.0243003 0
-0.0123839 -0.0127852 0
-0.0342024 -0.0674155 0
-0.00296656 -0.130686 0
-0.00288423 -0.00176406 0
-0.0255363 -0.100558 0
-0.00444583 -0.00457101 0
-0.0107268 -0.0250382 0
0.00331896 -0.16171 0
-0.00251681 -0.121216 0
-0.00200579 -0.000716387 0
-0.0157983 -0.11053 0
-0.00225336 -0.158454 0
-0.00477621 -0.00170346 0
-0.0107943 -0.0123047 0
0.000911743 -0.184801 0
-0.00279531 -0.00268853 0
-0.00182841 -0.000544594 0
-0.00194531 -0.117222 0
-0.0052411 -0.199996 0
-0.00222838 -0.00165066 0
-0.011492 -0.113172 0
-0.0184469 -0.0197954 0
-0.0246724 -0.0310104 0
-0.0329676 -0.0531391 0
-0.00759145 -0.00344565 0
-0.00742868 -0.0954973 0
-0.00547359 -0.270294 0
-0.0108694 -0.00409348 0
-0.00330654 -0.128501 0
-0.0106893 -0.0340424 0
-0.0145598 -0.0152238 0
-0.028816 -0.040095 0
-0.0350818 -0.0727444 0
-0.00175725 -0.000612609 0
-0.00310915 -0.115953 0
-0.0101616 -0.0588614 0
-0.00185851 -0.000963991 0
-0.00629033 -0.114988 0
0.00110386 -0.206236 0
0.000684822 -0.151066 0
-0.00870524 -0.0821426 0
-0.010651 -0.0387233 0
-0.00177937 -0.119731 0
-0.0107432 -0.0207013 0
-0.00231626 -0.00139896 0
-0.00359213 -0.00137824 0
-0.0031857 -0.141755 0
-0.0028819 -0.12669 0
-0.00635805 -0.00309531 0
-0.00439704 -0.179737 0
-0.0211164 -0.105894 0
-0.00565828 -0.00535299 0
-0.027635 -0.0980653 0
-0.0304019 -0.0924364 0
-0.00976451 -0.00928634 0
-0.0276041 -0.0349584 0
-0.0336185 -0.0600941 0
-0.0169367 -0.0183776 0
-0.0332442 -0.0792951 0
-0.00684203 -0.0070132 0
-0.0112911 -0.0115214 0
-0.0196108 -0.0205676 0
-0.0234968 -0.0286767 0
-0.033101 -0.0501776 0
-0.00326112 -0.00331422 0
-0.0031527 -0.115622 0
-0.00173358 -0.000475152 0
-0.015897 -0.0204453 0
-0.0306709 -0.0575558 0
-0.0218198 -0.03052 0
-0.00954254 -0.0360571 0
-0.00639365 -0.00793745 0
-0.0104152 -0.0127196 0
-0.00572528 -0.124941 0
-0.00620382 -0.13334 0
-0.0222369 -0.103234 0
-0.0091599 -0.0231249 0
-0.00268887 -0.0031373 0
-0.00702177 -0.170586 0
-0.00842123 -0.165868 0
-0.00623566 -0.00611758 0
-0.00632566 -0.115248 0
-0.00190626 -0.00131046 0
-0.00663566 -0.102745 0
-0.0103527 -0.0535819 0
-0.000466619 -0.164648 0
-0.00811882 -0.0886448 0
-0.00991136 -0.0643321 0
-0.00465747 -0.119009 0
-0.0107131 -0.0294706 0
-0.0108352 -0.00818618 0
-0.00545153 -0.228795 0
-0.00908025 -0.00377338 0
-0.00919251 -0.0759479 0
-0.0105888 -0.0435273 0
-0.00157643 -0.139123 0
-0.000650461 -0.233499 0
-0.0107659 -0.0164615 0
-0.00257362 -0.00160421 0
-0.00278195 -0.123502 0
-0.00304952 -0.135644 0
-0.0031353 -0.00186019 0
-0.00213599 -0.00120922 0
-0.00360178 -0.150502 0
-0.00414534 -0.00231938 0
-0.00281019 -0.118184 0
-0.00191394 -0.000957686 0
-0.00179465 -0.000720236 0
-0.00305799 -0.116451 0
-0.00330143 -0.165956 0
-0.00545647 -0.00282846 0
-0.0279697 -0.0372034 0
-0.0201228 -0.0224274 0
-0.0332484 -0.0564316 0
-0.015615 -0.016724 0
-0.0337976 -0.0759455 0
-0.00878898 -0.00914476 0
-0.0020245 -0.00137209 0
-0.00890439 -0.114165 0
-0.0282781 -0.0955056 0
-0.00513766 -0.00509488 0
-0.0185425 -0.108354 0
-0.025831 -0.0340034 0
-0.029825 -0.0430012 0
-0.031492 -0.0478663 0
-0.0222807 -0.0264656 0
-0.0135117 -0.0139713 0
-0.0345846 -0.0707213 0
-0.0103513 -0.0102487 0
-0.0306626 -0.0903853 0
-0.00612108 -0.00627289 0
-0.00380678 -0.00394109 0
-0.0024277 -0.00207818 0
-0.0339305 -0.0637438 0
-0.0324165 -0.0831582 0
-0.0131848 -0.112228 0
-0.0235313 -0.103194 0
-0.0286449 -0.0889173 0
-0.0140692 -0.111409 0
-0.00607776 -0.139799 0
-0.0254254 -0.0384708 0
-0.00540785 -0.119001 0
-0.00375323 -0.00478052 0
-0.0024377 -0.00284132 0
-0.0287414 -0.0484182 0
-0.0138391 -0.0161994 0
-0.0307037 -0.080124 0
-0.00900941 -0.0113203 0
-0.00771002 -0.154793 0
-0.00927016 -0.0272858 0
-0.0074132 -0.208272 0
-0.00907834 -0.0190794 0
-0.0318857 -0.0746275 0
-0.00220728 -0.00210879 0
-0.00744345 -0.12228 0
-0.00863751 -0.104342 0
-0.00925642 -0.0901243 0
-0.00974412 -0.0773609 0
-0.00996629 -0.065786 0
-0.00996327 -0.0551662 0
-0.00272269 -0.00329758 0
-0.00364788 -0.0040574 0
-0.0104158 -0.113603 0
-0.0019541 -0.00164099 0
-0.0310399 -0.0617028 0
-0.00947271 -0.0110149 0
-0.00540063 -0.006507 0
-0.019665 -0.106295 0
-0.00561549 -0.121774 0
-0.00580868 -0.116264 0
-0.00318205 -0.00397086 0
-0.0302814 -0.0523776 0
-0.00752209 -0.00686246 0
-0.0270875 -0.0939343 0
-0.0205896 -0.0280994 0
-0.0141263 -0.0182164 0
-0.0266842 -0.0419311 0
-0.0179644 -0.0225906 0
-0.00708917 -0.18812 0
-0.00496166 -0.00502596 0
-0.00599276 -0.157383 0
-0.00216123 -0.00221795 0
-0.00583433 -0.128843 0
-0.0043807 -0.146001 0
-0.00940082 -0.0315936 0
-0.0249085 -0.0997337 0
-0.00732429 -0.00905089 0
-0.011612 -0.0142282 0
-0.0230161 -0.0329088 0
-0.00836096 -0.186013 0
-0.00903469 -0.00753089 0
-0.00980211 -0.0453233 0
-0.00968059 -0.0406197 0
-0.0216299 -0.0349869 0
-0.0282283 -0.0591346 0
-0.00873209 -0.0335132 0
-0.00700431 -0.0102535 0
-0.0244645 -0.0952367 0
-0.0100363 -0.127973 0
-0.00848038 -0.122552 0
-0.00790108 -0.02121 0
-0.0210647 -0.103444 0
-0.00248316 -0.00378067 0
-0.00526392 -0.00834742 0
-0.00265781 -0.00368088 0
-0.00948758 -0.15215 0
-0.00941046 -0.0142017 0
-0.0123449 -0.0171862 0
-0.014771 -0.0225611 0
-0.010386 -0.159442 0
-0.00226475 -0.00269309 0
-0.0275472 -0.0548614 0
-0.00961636 -0.114433 0
-0.00605019 -0.00898755 0
-0.00314393 -0.00466347 0
-0.0108152 -0.158438 0
-0.00443806 -0.0056051 0
-0.0169844 -0.109007 0
-0.0276818 -0.0451079 0
-0.00432799 -0.00558496 0
-0.00611219 -0.14542 0
-0.00214774 -0.00238939 0
-0.00686907 -0.116818 0
-0.0193341 -0.0256417 0
-0.0080848 -0.00985216 0
-0.0190516 -0.0298489 0
-0.0128596 -0.0154426 0
-0.00875199 -0.117347 0
-0.00998843 -0.0603664 0
-0.00953073 -0.0835801 0
-0.00894119 -0.0970116 0
-0.00840873 -0.0292261 0
-0.00595579 -0.133719 0
-0.00308384 -0.00371787 0
-0.0297511 -0.08455 0
-0.00626792 -0.00927735 0
-0.00752251 -0.0103102 0
-0.00890724 -0.140447 0
-0.00989327 -0.17219 0
-0.00824851 -0.11255 0
-0.0239309 -0.0347359 0
-0.00989887 -0.0501572 0
-0.0313339 -0.0657243 0
-0.0315701 -0.0698493 0
-0.00988642 -0.0714428 0
-0.00902863 -0.0151482 0
-0.0288321 -0.0765613 0
-0.0260757 -0.061007 0
-0.00765868 -0.0269096 0
-0.0120502 -0.135131 0
-0.00669286 -0.0114849 0
-0.0029744 -0.00512593 0
-0.00547872 -0.0112807 0
-0.00870262 -0.136637 0
-0.00939154 -0.0423963 0
-0.0232117 -0.0369543 0
-0.00772639 -0.0174601 0
-0.0177533 -0.02729 0
-0.00999363 -0.051768 0
-0.0104973 -0.0619346 0
-0.0247168 -0.0436835 0
-0.0266272 -0.050834 0
-0.0108242 -0.0730757 0
-0.0109545 -0.0853094 0
-0.0110883 -0.098457 0
-0.0222975 -0.0998645 0
-0.00825754 -0.0115381 0
-0.00271213 -0.00432013 0
-0.0109581 -0.0158629 0
-0.0282515 -0.0813121 0
-0.0261477 -0.0905556 0
-0.0026887 -0.0044455 0
-0.0289182 -0.0675911 0
-0.00916977 -0.115583 0
-0.00385192 -0.00661711 0
-0.00446769 -0.00750598 0
-0.00235191 -0.00322932 0
-0.0110101 -0.147377 0
-0.00847691 -0.146172 0
-0.00812667 -0.0251115 0
-0.00437938 -0.00664026 0
-0.00370909 -0.0056329 0
-0.00854544 -0.126163 0
-0.00642593 -0.0125362 0
-0.0184522 -0.106859 0
-0.0157587 -0.109808 0
-0.0128455 -0.112337 0
-0.0203192 -0.0324366 0
-0.0286528 -0.0633801 0
-0.00517272 -0.00775302 0
-0.0132039 -0.0206497 0
-0.00759831 -0.0138311 0
-0.0163262 -0.0248129 0
-0.00849934 -0.119659 0
-0.0111177 -0.147336 0
-0.011853 -0.149488 0
-0.0237848 -0.099388 0
-0.0108854 -0.116865 0
-0.0150883 -0.0267458 0
-0.0110642 -0.119545 0
-0.00312372 -0.0063266 0
-0.0199007 -0.104042 0
-0.0174332 -0.107675 0
-0.00431183 -0.0076157 0
-0.0176838 -0.0317292 0
-0.0202804 -0.0373267 0
-0.0115484 -0.11503 0
-0.00818291 -0.0311526 0
-0.0226664 -0.0965327 0
-0.00580496 -0.0100911 0
-0.007652 -0.012972 0
-0.0117152 -0.105308 0
-0.0126415 -0.140372 0
-0.00575056 -0.014269 0
-0.00721999 -0.0229296 0
-0.0290187 -0.0719337 0
-0.0111332 -0.132185 0
-0.0265118 -0.065077 0
-0.00413317 -0.00894984 0
-0.00689282 -0.0192829 0
-0.00663147 -0.0158439 0
-0.0129416 -0.123092 0
-0.00316115 -0.0054021 0
-0.00864269 -0.130746 0
-0.0254127 -0.0569756 0
-0.0109068 -0.0790538 0
-0.0102615 -0.0567364 0
-0.00472721 -0.0100805 0
-0.0111419 -0.139115 0
-0.0121708 -0.143224 0
-0.00334656 -0.00580357 0
-0.0256419 -0.0471414 0
-0.00906628 -0.0379042 0
-0.0109829 -0.0918087 0
-0.0117444 -0.0190438 0
-0.0120792 -0.113487 0
-0.009701 -0.047 0
-0.0137078 -0.0245396 0
-0.0106851 -0.0673796 0
-0.0240819 -0.0411091 0
-0.0273409 -0.0859611 0
-0.00284022 -0.00506645 0
-0.0102073 -0.0486302 0
-0.012963 -0.0933694 0
-0.011913 -0.0692442 0
-0.0127689 -0.0263703 0
-0.00710137 -0.0244542 0
-0.0228261 -0.0452398 0
-0.003677 -0.00793223 0
-0.00335134 -0.0068553 0
-0.0110714 -0.126802 0
-0.024588 -0.0529869 0
-0.0220777 -0.0407068 0
-0.0135758 -0.132254 0
-0.00608536 -0.0173562 0
-0.0104552 -0.0175971 0
-0.00334487 -0.00707517 0
-0.0135377 -0.112483 0
-0.0267309 -0.0692652 0
-0.0265331 -0.0781604 0
-0.0260321 -0.0827748 0
-0.024119 -0.0920039 0
-0.0124941 -0.0810539 0
-0.0111507 -0.0584053 0
-0.00638954 -0.0125991 0
-0.014167 -0.112157 0
-0.0110328 -0.122729 0
-0.0036937 -0.00648705 0
-0.0148486 -0.110817 0
-0.00921508 -0.0397248 0
-0.00871141 -0.0354484 0
-0.011219 -0.117024 0
-0.0189387 -0.0344491 0
-0.0242756 -0.0628685 0
-0.0164138 -0.0291749 0
-0.0208747 -0.100926 0
-0.0050494 -0.0127534 0
-0.0130183 -0.132502 0
-0.00501665 -0.00880494 0
-0.0123315 -0.0225621 0
-0.00837068 -0.014196 0
-0.0164928 -0.0336881 0
-0.0241436 -0.0842285 0
-0.00924879 -0.037332 0
-0.0211913 -0.0980607 0
-0.00545038 -0.0154981 0
-0.013411 -0.11597 0
-0.00379394 -0.00898459 0
-0.0188386 -0.039556 0
-0.0188338 -0.105047 0
-0.011042 -0.0207478 0
-0.00491592 -0.00976759 0
-0.0140024 -0.103496 0
-0.00650801 -0.0206246 0
-0.0165971 -0.108801 0
-0.00369815 -0.00839537 0
-0.0106906 -0.0533839 0
-0.0122173 -0.0750277 0
-0.0150883 -0.117586 0
-0.00793985 -0.029298 0
-0.0267473 -0.0736212 0
-0.00827693 -0.0154792 0
-0.0235731 -0.0591801 0
-0.0132646 -0.118618 0
-0.0072999 -0.014183 0
-0.0127295 -0.0872776 0
-0.00429206 -0.00856243 0
-0.0237007 -0.0490817 0
-0.0252286 -0.0874033 0
-0.00971323 -0.0441026 0
-0.0140324 -0.0286789 0
-0.024666 -0.0665893 0
-0.011557 -0.0637076 0
-0.0131552 -0.126536 0
-0.00449953 -0.0113495 0
-0.0137005 -0.11385 0
-0.00559721 -0.0110666 0
-0.0115249 -0.0242764 0
-0.00324098 -0.00618938 0
-0.0119249 -0.0551134 0
-0.0144617 -0.0896771 0
-0.0231032 -0.0643947 0
-0.0103264 -0.0222749 0
-0.00825237 -0.0176122 0
-0.00740125 -0.0252124 0
-0.0210045 -0.0469931 0
-0.00489598 -0.010498 0
-0.00496784 -0.0138278 0
-0.0139032 -0.0773178 0
-0.0234286 -0.0889028 0
-0.0227469 -0.055159 0
-0.0148184 -0.120272 0
-0.00592882 -0.0182639 0
-0.0154914 -0.112001 0
-0.0119321 -0.028157 0
-0.0199991 -0.0431019 0
-0.00422286 -0.0102243 0
-0.0153342 -0.118958 0
-0.0105715 -0.0457203 0
-0.0129933 -0.065854 0
-0.00990581 -0.0414528 0
-0.00859688 -0.0333274 0
-0.0224325 -0.0935605 0
-0.0154107 -0.108303 0
-0.00609744 -0.0135736 0
-0.00372223 -0.00799722 0
-0.0245793 -0.0795968 0
-0.0176619 -0.0364672 0
-0.0196918 -0.102338 0
-0.0152865 -0.0311409 0
-0.00992194 -0.0190383 0
-0.0131967 -0.122056 0
-0.0248018 -0.0706941 0
-0.0179442 -0.106395 0
-0.00408211 -0.0100568 0
-0.00371808 -0.00733315 0
-0.00931375 -0.0164173 0
-0.0159447 -0.110259 0
-0.0155084 -0.035689 0
-0.0225178 -0.0856116 0
-0.0194057 -0.0490124 0
-0.00947961 -0.0352102 0
-0.00551459 -0.0162698 0
-0.0198893 -0.100048 0
-0.0150423 -0.116618 0
-0.0156858 -0.100564 0
-0.00459488 -0.012252 0
-0.0172714 -0.107959 0
-0.00925081 -0.0201737 0
-0.0142506 -0.0834859 0
-0.0110594 -0.0430415 0
-0.0134589 -0.0714371 0
-0.011253 -0.0502292 0
-0.0174839 -0.0415247 0
-0.00795417 -0.027913 0
-0.0167876 -0.104029 0
-0.0165896 -0.109144 0
-0.012496 -0.0604155 0
-0.0218445 -0.0624224 0
-0.00703287 -0.0155289 0
-0.0131214 -0.0307284 0
-0.0230786 -0.0718571 0
-0.0230624 -0.0675402 0
-0.021884 -0.0904547 0
-0.0219029 -0.0510397 0
-0.00535675 -0.0117421 0
-0.00647387 -0.0207252 0
-0.0152083 -0.114059 0
-0.0247847 -0.0750578 0
-0.0108286 -0.0258864 0
-0.00417453 -0.0103725 0
-0.0187096 -0.10412 0
-0.0143781 -0.096033 0
-0.0144375 -0.125072 0
-0.00919506 -0.0177368 0
-0.00439499 -0.00985296 0
-0.0129491 -0.0516778 0
-0.0159164 -0.0868305 0
-0.0152637 -0.0739355 0
-0.0214981 -0.0679776 0
-0.0111712 -0.029897 0
-0.00721154 -0.0229719 0
-0.0211083 -0.0868854 0
-0.0077955 -0.018747 0
-0.00577911 -0.0142718 0
-0.0178153 -0.100896 0
-0.0166576 -0.110645 0
-0.0202873 -0.0530677 0
-0.0230605 -0.0763287 0
-0.00534097 -0.0150562 0
-0.00506324 -0.0120728 0
-0.00606391 -0.0182814 0
-0.0118805 -0.0471813 0
-0.0163551 -0.112789 0
-0.00871085 -0.0315107 0
-0.0210863 -0.0573193 0
-0.0102653 -0.039061 0
-0.0184703 -0.0451448 0
-0.0140251 -0.0628857 0
-0.0170721 -0.0976781 0
-0.0209789 -0.0954015 0
-0.01652 -0.0383454 0
-0.0215276 -0.0775348 0
-0.0143599 -0.0333082 0
-0.00975479 -0.0238576 0
-0.0228984 -0.0808898 0
-0.00480635 -0.012299 0
-0.0168752 -0.109382 0
-0.0131364 -0.0977487 0
-0.0184475 -0.103719 0
-0.0162626 -0.0433239 0
-0.0180413 -0.0511765 0
-0.0116742 -0.0406662 0
-0.0131859 -0.0473886 0
-0.009899 -0.033319 0
-0.014913 -0.0373519 0
-0.0182603 -0.0953284 0
-0.0197297 -0.0973651 0
-0.00661525 -0.0195197 0
-0.00581805 -0.0167648 0
-0.0214504 -0.0820341 0
-0.017759 -0.10476 0
-0.0157093 -0.0803072 0
-0.00676352 -0.0172149 0
-0.0135033 -0.0578805 0
-0.0158792 -0.0935009 0
-0.0189029 -0.0552273 0
-0.0146466 -0.0680942 0
-0.00817472 -0.026543 0
-0.0173836 -0.104984 0
-0.0122848 -0.0328776 0
-0.0214281 -0.0729079 0
-0.0205468 -0.091996 0
-0.0200404 -0.0633405 0
-0.0101829 -0.027264 0
-0.00546398 -0.0146068 0
-0.00843695 -0.0213912 0
-0.0180217 -0.105874 0
-0.0204505 -0.0787265 0
-0.0199737 -0.067952 0
-0.0143212 -0.0567033 0
-0.0167712 -0.0704467 0
-0.00950084 -0.0252925 0
-0.0174131 -0.0844772 0
-0.019839 -0.0880523 0
-0.0168416 -0.0536636 0
-0.00767566 -0.0226581 0
-0.0149385 -0.0599272 0
-0.0187112 -0.0990214 0
-0.00902879 -0.029865 0
-0.0172887 -0.09116 0
-0.01252 -0.044495 0
-0.0107872 -0.0369162 0
-0.0196436 -0.0592399 0
-0.0136496 -0.0365383 0
-0.0171503 -0.0471856 0
-0.0154522 -0.0398425 0
-0.00731823 -0.020408 0
-0.00609552 -0.017007 0
-0.0151037 -0.0450781 0
-0.0177471 -0.0577383 0
-0.0143608 -0.0410456 0
-0.0190827 -0.0638696 0
-0.0172611 -0.0777645 0
-0.0114768 -0.0349308 0
-0.0157544 -0.0645961 0
-0.0201756 -0.0826765 0
-0.01593 -0.0493957 0
-0.0193707 -0.0935369 0
-0.0185956 -0.0893663 0
-0.019351 -0.0750236 0
-0.00955144 -0.0284618 0
-0.0124659 -0.0386159 0
-0.0104825 -0.0316147 0
-0.0139969 -0.046629 0
-0.0167464 -0.0609208 0
-0.00859307 -0.024817 0
-0.0185426 -0.061379 0
-0.0187259 -0.0669615 0
-0.0188595 -0.0831083 0
-0.0133271 -0.0425086 0
-0.0146035 -0.0522647 0
-0.0176994 -0.0645785 0
-0.0182949 -0.0705536 0
-0.0158241 -0.0567234 0
SCALARS sigma double
LOOKUP_TABLE default
499.909
498.162
495.592
501.372
499.909
499.916
499.926
499.937
499.951
499.963
499.972
499.977
499.973
499.961
499.94
499.906
499.857
499.791
499.705
499.592
499.449
499.271
499.049
498.778
498.445
498.037
497.54
496.943
496.227
494.558
492.308
488.901
482.173
466.593
436.485
495.595
495.604
495.605
495.607
495.614
495.625
495.632
495.643
495.656
495.664
495.682
495.705
495.726
495.75
495.773
495.79
495.82
495.852
495.883
495.919
495.962
496.004
496.047
496.088
496.15
496.213
496.27
496.329
496.398
496.481
496.555
496.649
496.751
496.837
496.93
497.041
497.157
497.303
497.455
497.579
497.714
497.866
498.032
498.218
498.447
498.625
498.779
498.954
499.148
499.378
499.638
499.808
500.041
500.236
500.383
500.532
500.679
500.835
501.024
501.186
501.22
501.246
501.317
453.976
454.095
464.326
471.904
477.302
482.452
485.801
487.796
490.007
491.77
493.269
494.537
495.568
496.742
497.689
498.555
499.45
500.121
500.881
495.719
495.895
496.054
496.237
496.422
496.612
496.802
496.987
497.194
497.392
497.564
497.81
498.045
498.28
498.498
498.724
498.985
499.265
499.555
499.462
497.344
499.127
495.877
498.98
497.107
496.365
496.005
498.019
491.932
497.43
499.942
495.795
499.552
492.451
495.926
496.61
500.407
482.499
498.281
499.553
483.398
495.764
496.238
498.573
467.183
495.695
500.928
496.211
496.58
497.432
498.984
498.241
439.142
499.553
495.923
499.541
496.075
496.897
498.412
495.92
499.993
499.339
495.739
500.73
474.134
493.717
498.786
499.525
496.79
499.552
496.968
497.82
487.94
493.482
498.701
474.297
500.137
495.769
499.921
499.509
495.88
496.738
497.693
496.179
498.61
495.855
495.969
496.227
496.501
497.335
495.778
500.814
495.727
496.356
497.461
496.628
499.155
496.036
496.154
493.805
492.996
499.395
499.213
495.965
481.43
478.886
498.671
499.779
495.948
497.85
499.409
488.707
498.545
499.246
496.712
499.549